 Entering Gaussian System, Link 0=g09
 Input=1.gjf
 Output=D:\ChemKun\test\LineApproximate\1.out
 Initial command:
 C:\G09W\l1.exe .\gxx.inp D:\ChemKun\test\LineApproximate\1.out /scrdir=.\
 Entering Link 1 = C:\G09W\l1.exe PID=     16636.
  
 Copyright (c) 1988,1990,1992,1993,1995,1998,2003,2009,2011,
            Gaussian, Inc.  All Rights Reserved.
  
 This is part of the Gaussian(R) 09 program.  It is based on
 the Gaussian(R) 03 system (copyright 2003, Gaussian, Inc.),
 the Gaussian(R) 98 system (copyright 1998, Gaussian, Inc.),
 the Gaussian(R) 94 system (copyright 1995, Gaussian, Inc.),
 the Gaussian 92(TM) system (copyright 1992, Gaussian, Inc.),
 the Gaussian 90(TM) system (copyright 1990, Gaussian, Inc.),
 the Gaussian 88(TM) system (copyright 1988, Gaussian, Inc.),
 the Gaussian 86(TM) system (copyright 1986, Carnegie Mellon
 University), and the Gaussian 82(TM) system (copyright 1983,
 Carnegie Mellon University). Gaussian is a federally registered
 trademark of Gaussian, Inc.
  
 This software contains proprietary and confidential information,
 including trade secrets, belonging to Gaussian, Inc.
  
 This software is provided under written license and may be
 used, copied, transmitted, or stored only in accord with that
 written license.
  
 The following legend is applicable only to US Government
 contracts under FAR:
  
                    RESTRICTED RIGHTS LEGEND
  
 Use, reproduction and disclosure by the US Government is
 subject to restrictions as set forth in subparagraphs (a)
 and (c) of the Commercial Computer Software - Restricted
 Rights clause in FAR 52.227-19.
  
 Gaussian, Inc.
 340 Quinnipiac St., Bldg. 40, Wallingford CT 06492
  
  
 ---------------------------------------------------------------
 Warning -- This program may not be used in any manner that
 competes with the business of Gaussian, Inc. or will provide
 assistance to any competitor of Gaussian, Inc.  The licensee
 of this program is prohibited from giving any competitor of
 Gaussian, Inc. access to this program.  By using this program,
 the user acknowledges that Gaussian, Inc. is engaged in the
 business of creating and licensing software in the field of
 computational chemistry and represents and warrants to the
 licensee that it is not a competitor of Gaussian, Inc. and that
 it will not use this program in any manner prohibited above.
 ---------------------------------------------------------------
  

 Cite this work as:
 Gaussian 09, Revision C.01,
 M. J. Frisch, G. W. Trucks, H. B. Schlegel, G. E. Scuseria, 
 M. A. Robb, J. R. Cheeseman, G. Scalmani, V. Barone, B. Mennucci, 
 G. A. Petersson, H. Nakatsuji, M. Caricato, X. Li, H. P. Hratchian, 
 A. F. Izmaylov, J. Bloino, G. Zheng, J. L. Sonnenberg, M. Hada, 
 M. Ehara, K. Toyota, R. Fukuda, J. Hasegawa, M. Ishida, T. Nakajima, 
 Y. Honda, O. Kitao, H. Nakai, T. Vreven, J. A. Montgomery, Jr., 
 J. E. Peralta, F. Ogliaro, M. Bearpark, J. J. Heyd, E. Brothers, 
 K. N. Kudin, V. N. Staroverov, T. Keith, R. Kobayashi, J. Normand, 
 K. Raghavachari, A. Rendell, J. C. Burant, S. S. Iyengar, J. Tomasi, 
 M. Cossi, N. Rega, J. M. Millam, M. Klene, J. E. Knox, J. B. Cross, 
 V. Bakken, C. Adamo, J. Jaramillo, R. Gomperts, R. E. Stratmann, 
 O. Yazyev, A. J. Austin, R. Cammi, C. Pomelli, J. W. Ochterski, 
 R. L. Martin, K. Morokuma, V. G. Zakrzewski, G. A. Voth, 
 P. Salvador, J. J. Dannenberg, S. Dapprich, A. D. Daniels, 
 O. Farkas, J. B. Foresman, J. V. Ortiz, J. Cioslowski, 
 and D. J. Fox, Gaussian, Inc., Wallingford CT, 2010.
 
 ******************************************
 Gaussian 09:  IA32W-G09RevC.01 23-Sep-2011
                14-Nov-2021 
 ******************************************
 %mem=64mb
 %chk=LiuKun1.chk
 -----------------------------------------------
 #p hf/sto-3g scf=maxcycle=999 opt=z-matrix freq
 -----------------------------------------------
 1/10=7,18=40,38=1/1,3;
 2/12=2,17=6,18=5,29=3,40=1/2;
 3/6=3,11=9,16=1,25=1,30=1,71=1/1,2,3;
 4//1;
 5/5=2,7=999,38=5/2;
 6/7=2,8=2,9=2,10=2,28=1/1;
 7/29=1/1,2,3,16;
 1/10=7,18=40/3(2);
 2/29=3/2;
 99//99;
 2/29=3/2;
 3/6=3,11=9,16=1,25=1,30=1,71=1/1,2,3;
 4/5=5,16=3/1;
 5/5=2,7=999,38=5/2;
 7//1,2,3,16;
 1/18=40/3(-5);
 2/29=3/2;
 6/7=2,8=2,9=2,10=2,19=2,28=1/1;
 99/9=1/99;
 Leave Link    1 at Sun Nov 14 20:01:44 2021, MaxMem=    8388608 cpu:       0.0
 (Enter C:\G09W\l101.exe)
 --
 T1
 --
 Charge =  0 Multiplicity = 1
 Symbolic Z-Matrix:
 H
 N                    1    B1
 C                    2    B2       1    A1
 O                    3    B3       2    A2       1    D1       0
       Variables:
  B1                    1.05084                  
  B2                    1.36265                  
  B3                    1.23459                  
  A1                  107.69645                  
  A2                  134.13593                  
  D1                  182.                       
 
 NAtoms=      4 NQM=        0 NQMF=       0 NMMI=      4 NMMIF=      0
                NMic=       0 NMicF=      0.
                    Isotopes and Nuclear Properties:
 (Nuclear quadrupole moments (NQMom) in fm**2, nuclear magnetic moments (NMagM)
  in nuclear magnetons)

  Atom         1           2           3           4
 IAtWgt=           1          14          12          16
 AtmWgt=   1.0078250  14.0030740  12.0000000  15.9949146
 NucSpn=           1           2           0           0
 AtZEff=   0.0000000   0.0000000   0.0000000   0.0000000
 NQMom=    0.0000000   2.0440000   0.0000000   0.0000000
 NMagM=    2.7928460   0.4037610   0.0000000   0.0000000
 Leave Link  101 at Sun Nov 14 20:01:44 2021, MaxMem=    8388608 cpu:       0.0
 (Enter C:\G09W\l103.exe)

 GradGradGradGradGradGradGradGradGradGradGradGradGradGradGradGradGradGrad
 Berny optimization.
 Initialization pass.
                       ----------------------------
                       !    Initial Parameters    !
                       ! (Angstroms and Degrees)  !
 ----------------------                            ----------------------
 !      Name          Value   Derivative information (Atomic Units)     !
 ------------------------------------------------------------------------
 !       B1          1.0508   estimate D2E/DX2                          !
 !       B2          1.3627   estimate D2E/DX2                          !
 !       B3          1.2346   estimate D2E/DX2                          !
 !       A1        107.6965   estimate D2E/DX2                          !
 !       A2        134.1359   estimate D2E/DX2                          !
 !       D1        182.0      estimate D2E/DX2                          !
 ------------------------------------------------------------------------
 Trust Radius=3.00D-01 FncErr=1.00D-07 GrdErr=1.00D-07
 Number of steps in this run=     20 maximum allowed number of steps=    100.
 GradGradGradGradGradGradGradGradGradGradGradGradGradGradGradGradGradGrad

 Leave Link  103 at Sun Nov 14 20:01:44 2021, MaxMem=    8388608 cpu:       0.0
 (Enter C:\G09W\l202.exe)
 ---------------------------------------------------------------------------------------------------
                            Z-MATRIX (ANGSTROMS AND DEGREES)
   CD    Cent   Atom    N1       Length/X        N2       Alpha/Y        N3        Beta/Z          J
 ---------------------------------------------------------------------------------------------------
      1      1  H 
      2      2  N        1   1.050837(     1)
      3      3  C        2   1.362651(     2)      1  107.696(     4)
      4      4  O        3   1.234589(     3)      2  134.136(     5)      1  182.000(     6)      0
 ---------------------------------------------------------------------------------------------------
                         Z-Matrix orientation:                         
 ---------------------------------------------------------------------
 Center     Atomic      Atomic             Coordinates (Angstroms)
 Number     Number       Type             X           Y           Z
 ---------------------------------------------------------------------
      1          1           0        0.000000    0.000000    0.000000
      2          7           0        0.000000    0.000000    1.050837
      3          6           0        1.298171    0.000000    1.465048
      4          8           0        1.848038   -0.030923    2.569991
 ---------------------------------------------------------------------
                    Distance matrix (angstroms):
                    1          2          3          4
     1  H    0.000000
     2  N    1.050837   0.000000
     3  C    1.957450   1.362651   0.000000
     4  O    3.165605   2.392495   1.234589   0.000000
 Stoichiometry    CHNO
 Framework group  C1[X(CHNO)]
 Deg. of freedom     6
 Full point group                 C1      NOp   1
 Largest Abelian subgroup         C1      NOp   1
 Largest concise Abelian subgroup C1      NOp   1
                         Standard orientation:                         
 ---------------------------------------------------------------------
 Center     Atomic      Atomic             Coordinates (Angstroms)
 Number     Number       Type             X           Y           Z
 ---------------------------------------------------------------------
      1          1           0        1.883549    0.537087    0.021445
      2          7           0        1.173860   -0.237554   -0.001598
      3          6           0       -0.063143    0.333955   -0.005747
      4          8           0       -1.215214   -0.109742    0.003028
 ---------------------------------------------------------------------
 Rotational constants (GHZ):    195.7181738     10.8721151     10.3003464
 Leave Link  202 at Sun Nov 14 20:01:44 2021, MaxMem=    8388608 cpu:       0.0
 (Enter C:\G09W\l301.exe)
 Standard basis: STO-3G (5D, 7F)
 Ernie: Thresh=  0.10000D-02 Tol=  0.10000D-05 Strict=F.
 There are    16 symmetry adapted basis functions of A   symmetry.
 Integral buffers will be    262144 words long.
 Raffenetti 1 integral format.
 Two-electron integral symmetry is turned on.
    16 basis functions,    48 primitive gaussians,    16 cartesian basis functions
    11 alpha electrons       11 beta electrons
       nuclear repulsion energy        55.7551009953 Hartrees.
 IExCor=    0 DFT=F Ex=HF Corr=None ExCW=0 ScaHFX=  1.000000
 ScaDFX=  1.000000  1.000000  1.000000  1.000000 ScalE2=  1.000000  1.000000
 IRadAn=      0 IRanWt=     -1 IRanGd=            0 ICorTp=0
 NAtoms=    4 NActive=    4 NUniq=    4 SFac= 1.00D+00 NAtFMM=   60 NAOKFM=F Big=F
 Leave Link  301 at Sun Nov 14 20:01:44 2021, MaxMem=    8388608 cpu:       0.0
 (Enter C:\G09W\l302.exe)
 NPDir=0 NMtPBC=     1 NCelOv=     1 NCel=       1 NClECP=     1 NCelD=      1
         NCelK=      1 NCelE2=     1 NClLst=     1 CellRange=     0.0.
 One-electron integrals computed using PRISM.
 NBasis=    16 RedAO= T  NBF=    16
 NBsUse=    16 1.00D-06 NBFU=    16
 Leave Link  302 at Sun Nov 14 20:01:45 2021, MaxMem=    8388608 cpu:       0.0
 (Enter C:\G09W\l303.exe)
 DipDrv:  MaxL=1.
 Leave Link  303 at Sun Nov 14 20:01:45 2021, MaxMem=    8388608 cpu:       0.0
 (Enter C:\G09W\l401.exe)
 Harris functional with IExCor=  205 diagonalized for initial guess.
 ExpMin= 1.69D-01 ExpMax= 1.31D+02 ExpMxC= 1.31D+02 IAcc=1 IRadAn=         1 AccDes= 0.00D+00
 HarFok:  IExCor=  205 AccDes= 0.00D+00 IRadAn=         1 IDoV= 1
 ScaDFX=  1.000000  1.000000  1.000000  1.000000
 FoFCou: FMM=F IPFlag=           0 FMFlag=      100000 FMFlg1=           0
         NFxFlg=           0 DoJE=T BraDBF=F KetDBF=T FulRan=T
         Omega=  0.000000  0.000000  1.000000  0.000000  0.000000 ICntrl=     500 IOpCl=  0
         NMat0=    1 NMatS0=    1 NMatT0=    0 NMatD0=    1 NMtDS0=    0 NMtDT0=    0
         I1Cent=           4 NGrid=           0.
 Petite list used in FoFCou.
 Harris En= -165.512714736126    
 Initial guess orbital symmetries:
       Occupied  (A) (A) (A) (A) (A) (A) (A) (A) (A) (A) (A)
       Virtual   (A) (A) (A) (A) (A)
 The electronic state of the initial guess is 1-A.
 Leave Link  401 at Sun Nov 14 20:01:45 2021, MaxMem=    8388608 cpu:       0.0
 (Enter C:\G09W\l502.exe)
 Closed shell SCF:
 Requested convergence on RMS density matrix=1.00D-08 within 999 cycles.
 Requested convergence on MAX density matrix=1.00D-06.
 Requested convergence on             energy=1.00D-06.
 No special actions if energy rises.
 Using DIIS extrapolation, IDIIS=  1040.
 Integral symmetry usage will be decided dynamically.
 Keep R1 ints in memory in canonical form, NReq=1815018.
 IEnd=     1005688 IEndB=     1005688 NGot=     8388608 MDV=     8374038
 LenX=     8374038 LenY=     8373156
 Symmetry not used in FoFDir.
 MinBra= 0 MaxBra= 1 Meth= 1.
 IRaf=       0 NMat=   1 IRICut=       1 DoRegI=T DoRafI=F ISym2E= 0 JSym2E=0.

 Cycle   1  Pass 1  IDiag  1:
 E= -165.408232746335    
 DIIS: error= 4.65D-02 at cycle   1 NSaved=   1.
 NSaved= 1 IEnMin= 1 EnMin= -165.408232746335     IErMin= 1 ErrMin= 4.65D-02
 ErrMax= 4.65D-02 EMaxC= 1.00D-01 BMatC= 4.83D-02 BMatP= 4.83D-02
 IDIUse=3 WtCom= 5.35D-01 WtEn= 4.65D-01
 Coeff-Com:  0.100D+01
 Coeff-En:   0.100D+01
 Coeff:      0.100D+01
 Gap=     0.396 Goal=   None    Shift=    0.000
 GapD=    0.396 DampG=1.000 DampE=0.500 DampFc=0.5000 IDamp=-1.
 Damping current iteration by 5.00D-01
 RMSDP=2.20D-02 MaxDP=1.25D-01              OVMax= 0.00D+00

 Cycle   2  Pass 1  IDiag  1:
 E= -165.430910975426     Delta-E=       -0.022678229091 Rises=F Damp=T
 DIIS: error= 1.95D-02 at cycle   2 NSaved=   2.
 NSaved= 2 IEnMin= 2 EnMin= -165.430910975426     IErMin= 2 ErrMin= 1.95D-02
 ErrMax= 1.95D-02 EMaxC= 1.00D-01 BMatC= 7.21D-03 BMatP= 4.83D-02
 IDIUse=3 WtCom= 8.05D-01 WtEn= 1.95D-01
 Coeff-Com: -0.329D+00 0.133D+01
 Coeff-En:   0.000D+00 0.100D+01
 Coeff:     -0.265D+00 0.126D+01
 Gap=     0.478 Goal=   None    Shift=    0.000
 RMSDP=6.61D-03 MaxDP=2.88D-02 DE=-2.27D-02 OVMax= 0.00D+00

 Cycle   3  Pass 1  IDiag  1:
 E= -165.454753331114     Delta-E=       -0.023842355688 Rises=F Damp=F
 DIIS: error= 6.35D-03 at cycle   3 NSaved=   3.
 NSaved= 3 IEnMin= 3 EnMin= -165.454753331114     IErMin= 3 ErrMin= 6.35D-03
 ErrMax= 6.35D-03 EMaxC= 1.00D-01 BMatC= 9.29D-04 BMatP= 7.21D-03
 IDIUse=3 WtCom= 9.36D-01 WtEn= 6.35D-02
 Coeff-Com: -0.155D+00 0.217D+00 0.938D+00
 Coeff-En:   0.000D+00 0.000D+00 0.100D+01
 Coeff:     -0.145D+00 0.203D+00 0.942D+00
 Gap=     0.480 Goal=   None    Shift=    0.000
 RMSDP=3.04D-03 MaxDP=1.66D-02 DE=-2.38D-02 OVMax= 0.00D+00

 Cycle   4  Pass 1  IDiag  1:
 E= -165.456198999497     Delta-E=       -0.001445668384 Rises=F Damp=F
 DIIS: error= 2.11D-03 at cycle   4 NSaved=   4.
 NSaved= 4 IEnMin= 4 EnMin= -165.456198999497     IErMin= 4 ErrMin= 2.11D-03
 ErrMax= 2.11D-03 EMaxC= 1.00D-01 BMatC= 1.63D-04 BMatP= 9.29D-04
 IDIUse=3 WtCom= 9.79D-01 WtEn= 2.11D-02
 Coeff-Com: -0.421D-01 0.118D-01 0.262D+00 0.768D+00
 Coeff-En:   0.000D+00 0.000D+00 0.000D+00 0.100D+01
 Coeff:     -0.412D-01 0.115D-01 0.256D+00 0.773D+00
 Gap=     0.483 Goal=   None    Shift=    0.000
 RMSDP=1.36D-03 MaxDP=9.29D-03 DE=-1.45D-03 OVMax= 0.00D+00

 Cycle   5  Pass 1  IDiag  1:
 E= -165.456470642185     Delta-E=       -0.000271642687 Rises=F Damp=F
 DIIS: error= 1.77D-03 at cycle   5 NSaved=   5.
 NSaved= 5 IEnMin= 5 EnMin= -165.456470642185     IErMin= 5 ErrMin= 1.77D-03
 ErrMax= 1.77D-03 EMaxC= 1.00D-01 BMatC= 3.61D-05 BMatP= 1.63D-04
 IDIUse=3 WtCom= 9.82D-01 WtEn= 1.77D-02
 Coeff-Com:  0.382D-01-0.518D-01-0.319D+00 0.104D+00 0.123D+01
 Coeff-En:   0.000D+00 0.000D+00 0.000D+00 0.000D+00 0.100D+01
 Coeff:      0.375D-01-0.509D-01-0.314D+00 0.102D+00 0.123D+01
 Gap=     0.485 Goal=   None    Shift=    0.000
 RMSDP=9.87D-04 MaxDP=5.77D-03 DE=-2.72D-04 OVMax= 0.00D+00

 Cycle   6  Pass 1  IDiag  1:
 E= -165.456574333106     Delta-E=       -0.000103690922 Rises=F Damp=F
 DIIS: error= 3.16D-04 at cycle   6 NSaved=   6.
 NSaved= 6 IEnMin= 6 EnMin= -165.456574333106     IErMin= 6 ErrMin= 3.16D-04
 ErrMax= 3.16D-04 EMaxC= 1.00D-01 BMatC= 1.23D-06 BMatP= 3.61D-05
 IDIUse=3 WtCom= 9.97D-01 WtEn= 3.16D-03
 Coeff-Com: -0.187D-01 0.268D-01 0.168D+00-0.719D-01-0.709D+00 0.160D+01
 Coeff-En:   0.000D+00 0.000D+00 0.000D+00 0.000D+00 0.000D+00 0.100D+01
 Coeff:     -0.186D-01 0.267D-01 0.168D+00-0.717D-01-0.707D+00 0.160D+01
 Gap=     0.485 Goal=   None    Shift=    0.000
 RMSDP=2.49D-04 MaxDP=1.70D-03 DE=-1.04D-04 OVMax= 0.00D+00

 Cycle   7  Pass 1  IDiag  1:
 E= -165.456581848458     Delta-E=       -0.000007515352 Rises=F Damp=F
 DIIS: error= 1.61D-04 at cycle   7 NSaved=   7.
 NSaved= 7 IEnMin= 7 EnMin= -165.456581848458     IErMin= 7 ErrMin= 1.61D-04
 ErrMax= 1.61D-04 EMaxC= 1.00D-01 BMatC= 2.85D-07 BMatP= 1.23D-06
 IDIUse=3 WtCom= 9.98D-01 WtEn= 1.61D-03
 Coeff-Com:  0.121D-01-0.176D-01-0.111D+00 0.774D-01 0.433D+00-0.143D+01
 Coeff-Com:  0.203D+01
 Coeff-En:   0.000D+00 0.000D+00 0.000D+00 0.000D+00 0.000D+00 0.000D+00
 Coeff-En:   0.100D+01
 Coeff:      0.121D-01-0.176D-01-0.111D+00 0.773D-01 0.432D+00-0.142D+01
 Coeff:      0.203D+01
 Gap=     0.485 Goal=   None    Shift=    0.000
 RMSDP=1.82D-04 MaxDP=1.09D-03 DE=-7.52D-06 OVMax= 0.00D+00

 Cycle   8  Pass 1  IDiag  1:
 E= -165.456584100061     Delta-E=       -0.000002251603 Rises=F Damp=F
 DIIS: error= 5.48D-05 at cycle   8 NSaved=   8.
 NSaved= 8 IEnMin= 8 EnMin= -165.456584100061     IErMin= 8 ErrMin= 5.48D-05
 ErrMax= 5.48D-05 EMaxC= 1.00D-01 BMatC= 4.42D-08 BMatP= 2.85D-07
 IDIUse=1 WtCom= 1.00D+00 WtEn= 0.00D+00
 Coeff-Com: -0.491D-02 0.691D-02 0.542D-01-0.396D-01-0.200D+00 0.754D+00
 Coeff-Com: -0.143D+01 0.186D+01
 Coeff:     -0.491D-02 0.691D-02 0.542D-01-0.396D-01-0.200D+00 0.754D+00
 Coeff:     -0.143D+01 0.186D+01
 Gap=     0.485 Goal=   None    Shift=    0.000
 RMSDP=9.10D-05 MaxDP=4.48D-04 DE=-2.25D-06 OVMax= 0.00D+00

 Cycle   9  Pass 1  IDiag  1:
 E= -165.456584562453     Delta-E=       -0.000000462392 Rises=F Damp=F
 DIIS: error= 2.76D-05 at cycle   9 NSaved=   9.
 NSaved= 9 IEnMin= 9 EnMin= -165.456584562453     IErMin= 9 ErrMin= 2.76D-05
 ErrMax= 2.76D-05 EMaxC= 1.00D-01 BMatC= 8.79D-09 BMatP= 4.42D-08
 IDIUse=1 WtCom= 1.00D+00 WtEn= 0.00D+00
 Coeff-Com:  0.242D-02-0.316D-02-0.328D-01 0.234D-01 0.118D+00-0.470D+00
 Coeff-Com:  0.984D+00-0.182D+01 0.220D+01
 Coeff:      0.242D-02-0.316D-02-0.328D-01 0.234D-01 0.118D+00-0.470D+00
 Coeff:      0.984D+00-0.182D+01 0.220D+01
 Gap=     0.485 Goal=   None    Shift=    0.000
 RMSDP=5.69D-05 MaxDP=3.04D-04 DE=-4.62D-07 OVMax= 0.00D+00

 Cycle  10  Pass 1  IDiag  1:
 E= -165.456584676463     Delta-E=       -0.000000114009 Rises=F Damp=F
 DIIS: error= 6.46D-06 at cycle  10 NSaved=  10.
 NSaved=10 IEnMin=10 EnMin= -165.456584676463     IErMin=10 ErrMin= 6.46D-06
 ErrMax= 6.46D-06 EMaxC= 1.00D-01 BMatC= 8.49D-10 BMatP= 8.79D-09
 IDIUse=1 WtCom= 1.00D+00 WtEn= 0.00D+00
 Coeff-Com: -0.853D-03 0.102D-02 0.143D-01-0.103D-01-0.497D-01 0.214D+00
 Coeff-Com: -0.487D+00 0.103D+01-0.156D+01 0.184D+01
 Coeff:     -0.853D-03 0.102D-02 0.143D-01-0.103D-01-0.497D-01 0.214D+00
 Coeff:     -0.487D+00 0.103D+01-0.156D+01 0.184D+01
 Gap=     0.485 Goal=   None    Shift=    0.000
 RMSDP=1.53D-05 MaxDP=6.12D-05 DE=-1.14D-07 OVMax= 0.00D+00

 Cycle  11  Pass 1  IDiag  1:
 E= -165.456584684955     Delta-E=       -0.000000008493 Rises=F Damp=F
 DIIS: error= 3.62D-06 at cycle  11 NSaved=  11.
 NSaved=11 IEnMin=11 EnMin= -165.456584684955     IErMin=11 ErrMin= 3.62D-06
 ErrMax= 3.62D-06 EMaxC= 1.00D-01 BMatC= 1.35D-10 BMatP= 8.49D-10
 IDIUse=1 WtCom= 1.00D+00 WtEn= 0.00D+00
 Coeff-Com:  0.283D-03-0.301D-03-0.595D-02 0.416D-02 0.203D-01-0.904D-01
 Coeff-Com:  0.216D+00-0.484D+00 0.803D+00-0.122D+01 0.176D+01
 Coeff:      0.283D-03-0.301D-03-0.595D-02 0.416D-02 0.203D-01-0.904D-01
 Coeff:      0.216D+00-0.484D+00 0.803D+00-0.122D+01 0.176D+01
 Gap=     0.485 Goal=   None    Shift=    0.000
 RMSDP=4.22D-06 MaxDP=1.96D-05 DE=-8.49D-09 OVMax= 0.00D+00

 Cycle  12  Pass 1  IDiag  1:
 E= -165.456584686327     Delta-E=       -0.000000001372 Rises=F Damp=F
 DIIS: error= 2.40D-06 at cycle  12 NSaved=  12.
 NSaved=12 IEnMin=12 EnMin= -165.456584686327     IErMin=12 ErrMin= 2.40D-06
 ErrMax= 2.40D-06 EMaxC= 1.00D-01 BMatC= 4.87D-11 BMatP= 1.35D-10
 IDIUse=1 WtCom= 1.00D+00 WtEn= 0.00D+00
 Coeff-Com: -0.162D-03 0.126D-03 0.478D-02-0.323D-02-0.161D-01 0.739D-01
 Coeff-Com: -0.183D+00 0.423D+00-0.747D+00 0.127D+01-0.251D+01 0.269D+01
 Coeff:     -0.162D-03 0.126D-03 0.478D-02-0.323D-02-0.161D-01 0.739D-01
 Coeff:     -0.183D+00 0.423D+00-0.747D+00 0.127D+01-0.251D+01 0.269D+01
 Gap=     0.485 Goal=   None    Shift=    0.000
 RMSDP=4.58D-06 MaxDP=2.30D-05 DE=-1.37D-09 OVMax= 0.00D+00

 Cycle  13  Pass 1  IDiag  1:
 E= -165.456584687137     Delta-E=       -0.000000000809 Rises=F Damp=F
 DIIS: error= 1.00D-06 at cycle  13 NSaved=  13.
 NSaved=13 IEnMin=13 EnMin= -165.456584687137     IErMin=13 ErrMin= 1.00D-06
 ErrMax= 1.00D-06 EMaxC= 1.00D-01 BMatC= 1.13D-11 BMatP= 4.87D-11
 IDIUse=1 WtCom= 1.00D+00 WtEn= 0.00D+00
 Coeff-Com:  0.232D-04 0.591D-04-0.294D-02 0.185D-02 0.969D-02-0.481D-01
 Coeff-Com:  0.129D+00-0.318D+00 0.599D+00-0.111D+01 0.252D+01-0.336D+01
 Coeff-Com:  0.257D+01
 Coeff:      0.232D-04 0.591D-04-0.294D-02 0.185D-02 0.969D-02-0.481D-01
 Coeff:      0.129D+00-0.318D+00 0.599D+00-0.111D+01 0.252D+01-0.336D+01
 Coeff:      0.257D+01
 Gap=     0.485 Goal=   None    Shift=    0.000
 RMSDP=2.78D-06 MaxDP=1.37D-05 DE=-8.09D-10 OVMax= 0.00D+00

 Cycle  14  Pass 1  IDiag  1:
 E= -165.456584687323     Delta-E=       -0.000000000186 Rises=F Damp=F
 DIIS: error= 1.77D-07 at cycle  14 NSaved=  14.
 NSaved=14 IEnMin=14 EnMin= -165.456584687323     IErMin=14 ErrMin= 1.77D-07
 ErrMax= 1.77D-07 EMaxC= 1.00D-01 BMatC= 9.37D-13 BMatP= 1.13D-11
 IDIUse=1 WtCom= 1.00D+00 WtEn= 0.00D+00
 Coeff-Com: -0.998D-05-0.188D-05 0.584D-03-0.320D-03-0.206D-02 0.950D-02
 Coeff-Com: -0.249D-01 0.603D-01-0.112D+00 0.205D+00-0.485D+00 0.689D+00
 Coeff-Com: -0.770D+00 0.143D+01
 Coeff:     -0.998D-05-0.188D-05 0.584D-03-0.320D-03-0.206D-02 0.950D-02
 Coeff:     -0.249D-01 0.603D-01-0.112D+00 0.205D+00-0.485D+00 0.689D+00
 Coeff:     -0.770D+00 0.143D+01
 Gap=     0.485 Goal=   None    Shift=    0.000
 RMSDP=5.67D-07 MaxDP=2.79D-06 DE=-1.86D-10 OVMax= 0.00D+00

 Cycle  15  Pass 1  IDiag  1:
 E= -165.456584687330     Delta-E=       -0.000000000007 Rises=F Damp=F
 DIIS: error= 2.63D-08 at cycle  15 NSaved=  15.
 NSaved=15 IEnMin=15 EnMin= -165.456584687330     IErMin=15 ErrMin= 2.63D-08
 ErrMax= 2.63D-08 EMaxC= 1.00D-01 BMatC= 1.27D-14 BMatP= 9.37D-13
 IDIUse=1 WtCom= 1.00D+00 WtEn= 0.00D+00
 Coeff-Com: -0.184D-05 0.306D-05 0.297D-05-0.219D-04 0.215D-04-0.525D-04
 Coeff-Com:  0.423D-03-0.147D-02 0.363D-02-0.866D-02 0.319D-01-0.591D-01
 Coeff-Com:  0.112D+00-0.385D+00 0.131D+01
 Coeff:     -0.184D-05 0.306D-05 0.297D-05-0.219D-04 0.215D-04-0.525D-04
 Coeff:      0.423D-03-0.147D-02 0.363D-02-0.866D-02 0.319D-01-0.591D-01
 Coeff:      0.112D+00-0.385D+00 0.131D+01
 Gap=     0.485 Goal=   None    Shift=    0.000
 RMSDP=3.20D-08 MaxDP=1.24D-07 DE=-6.93D-12 OVMax= 0.00D+00

 Cycle  16  Pass 1  IDiag  1:
 E= -165.456584687330     Delta-E=        0.000000000000 Rises=F Damp=F
 DIIS: error= 3.98D-09 at cycle  16 NSaved=  16.
 NSaved=16 IEnMin=15 EnMin= -165.456584687330     IErMin=16 ErrMin= 3.98D-09
 ErrMax= 3.98D-09 EMaxC= 1.00D-01 BMatC= 4.64D-16 BMatP= 1.27D-14
 IDIUse=1 WtCom= 1.00D+00 WtEn= 0.00D+00
 Large coefficients: NSaved= 16 BigCof=    0.00 CofMax=   10.00 Det=-5.32D-16
 Inversion failed.  Reducing to 15 matrices.
 Coeff-Com: -0.171D-06 0.610D-05 0.150D-05-0.314D-04 0.117D-03-0.342D-03
 Coeff-Com:  0.881D-03-0.172D-02 0.341D-02-0.998D-02 0.165D-01-0.280D-01
 Coeff-Com:  0.948D-01-0.393D+00 0.132D+01
 Coeff:     -0.171D-06 0.610D-05 0.150D-05-0.314D-04 0.117D-03-0.342D-03
 Coeff:      0.881D-03-0.172D-02 0.341D-02-0.998D-02 0.165D-01-0.280D-01
 Coeff:      0.948D-01-0.393D+00 0.132D+01
 Gap=     0.485 Goal=   None    Shift=    0.000
 RMSDP=3.60D-09 MaxDP=1.27D-08 DE= 2.84D-13 OVMax= 0.00D+00

 SCF Done:  E(RHF) =  -165.456584687     A.U. after   16 cycles
             Convg  =    0.3599D-08             -V/T =  2.0097
 KE= 1.638595311771D+02 PE=-5.014053687410D+02 EE= 1.163341518812D+02
 Leave Link  502 at Sun Nov 14 20:01:46 2021, MaxMem=    8388608 cpu:       0.0
 (Enter C:\G09W\l601.exe)
 Copying SCF densities to generalized density rwf, IOpCl= 0 IROHF=0.

 **********************************************************************

            Population analysis using the SCF density.

 **********************************************************************

 Orbital symmetries:
       Occupied  (A) (A) (A) (A) (A) (A) (A) (A) (A) (A) (A)
       Virtual   (A) (A) (A) (A) (A)
 The electronic state is 1-A.
 Alpha  occ. eigenvalues --  -20.37290 -15.33396 -11.19581  -1.37715  -1.11458
 Alpha  occ. eigenvalues --   -0.69605  -0.58298  -0.54936  -0.51662  -0.37834
 Alpha  occ. eigenvalues --   -0.32103
 Alpha virt. eigenvalues --    0.16433   0.27892   0.58781   0.75489   0.95143
          Condensed to atoms (all electrons):
              1          2          3          4
     1  H    0.574132   0.303013  -0.035119   0.001035
     2  N    0.303013   6.633327   0.395520  -0.019340
     3  C   -0.035119   0.395520   4.872567   0.447652
     4  O    0.001035  -0.019340   0.447652   7.734453
 Mulliken atomic charges:
              1
     1  H    0.156940
     2  N   -0.312520
     3  C    0.319380
     4  O   -0.163800
 Sum of Mulliken atomic charges =   0.00000
 Mulliken charges with hydrogens summed into heavy atoms:
              1
     2  N   -0.155580
     3  C    0.319380
     4  O   -0.163800
 Sum of Mulliken charges with hydrogens summed into heavy atoms =   0.00000
 Electronic spatial extent (au):  <R**2>=            128.4317
 Charge=              0.0000 electrons
 Dipole moment (field-independent basis, Debye):
    X=              0.5149    Y=              2.0449    Z=              0.0220  Tot=              2.1088
 Quadrupole moment (field-independent basis, Debye-Ang):
   XX=            -16.1772   YY=            -14.4214   ZZ=            -14.9528
   XY=              1.7299   XZ=              0.0767   YZ=              0.0116
 Traceless Quadrupole moment (field-independent basis, Debye-Ang):
   XX=             -0.9934   YY=              0.7624   ZZ=              0.2310
   XY=              1.7299   XZ=              0.0767   YZ=              0.0116
 Octapole moment (field-independent basis, Debye-Ang**2):
  XXX=              1.5412  YYY=             -0.0013  ZZZ=              0.0227  XYY=             -1.7180
  XXY=              3.0617  XXZ=              0.1266  XZZ=             -1.9755  YZZ=             -0.0034
  YYZ=              0.0209  XYZ=              0.0088
 Hexadecapole moment (field-independent basis, Debye-Ang**3):
 XXXX=           -100.3928 YYYY=            -15.3374 ZZZZ=             -9.5772 XXXY=              5.4255
 XXXZ=              0.2182 YYYX=              1.5307 YYYZ=              0.0079 ZZZX=              0.0065
 ZZZY=              0.0016 XXYY=            -19.0850 XXZZ=            -19.7427 YYZZ=             -4.1898
 XXYZ=              0.0350 YYXZ=              0.0250 ZZXY=              0.3448
 N-N= 5.575510099534D+01 E-N=-5.014053687420D+02  KE= 1.638595311771D+02
 No NMR shielding tensors so no spin-rotation constants.
 Leave Link  601 at Sun Nov 14 20:01:46 2021, MaxMem=    8388608 cpu:       0.0
 (Enter C:\G09W\l701.exe)
 Compute integral first derivatives.
 ... and contract with generalized density number  0.
 Leave Link  701 at Sun Nov 14 20:01:46 2021, MaxMem=    8388608 cpu:       0.0
 (Enter C:\G09W\l702.exe)
 L702 exits ... SP integral derivatives will be done elsewhere.
 Leave Link  702 at Sun Nov 14 20:01:46 2021, MaxMem=    8388608 cpu:       0.0
 (Enter C:\G09W\l703.exe)
 Compute integral first derivatives, UseDBF=F ICtDFT=           0.
 Integral derivatives from FoFDir, PRISM(SPDF).
 Calling FoFJK, ICntrl=      2127 FMM=F ISym2X=0 I1Cent= 0 IOpClX= 0 NMat=1 NMatS=1 NMatT=0.
 FoFCou: FMM=F IPFlag=           0 FMFlag=      100000 FMFlg1=         800
         NFxFlg=           0 DoJE=F BraDBF=F KetDBF=F FulRan=T
         Omega=  0.000000  0.000000  1.000000  0.000000  0.000000 ICntrl=    2127 IOpCl=  0
         NMat0=    1 NMatS0=    1 NMatT0=    0 NMatD0=    1 NMtDS0=    0 NMtDT0=    0
         I1Cent=           0 NGrid=           0.
 Symmetry not used in FoFCou.
 Leave Link  703 at Sun Nov 14 20:01:47 2021, MaxMem=    8388608 cpu:       1.0
 (Enter C:\G09W\l716.exe)
 Dipole        = 2.02578506D-01 8.04527180D-01 8.67203707D-03
 ***** Axes restored to original set *****
 -------------------------------------------------------------------
 Center     Atomic                   Forces (Hartrees/Bohr)
 Number     Number              X              Y              Z
 -------------------------------------------------------------------
      1        1          -0.007106701    0.000256967    0.001954963
      2        7           0.098786405    0.001156715   -0.017249719
      3        6          -0.087722671   -0.004973743    0.114835501
      4        8          -0.003957033    0.003560062   -0.099540745
 -------------------------------------------------------------------
 Cartesian Forces:  Max     0.114835501 RMS     0.058420835
 -----------------------------------------------------------------------------------------------
                       Internal Coordinate Forces (Hartree/Bohr or radian)
  Cent   Atom   N1       Length/X         N2         Alpha/Y        N3         Beta/Z          J
 -----------------------------------------------------------------------------------------------
      1  H 
      2  N        1  -0.001955(     1)
      3  C        2  -0.082692(     2)      1   0.014112(     4)
      4  O        3  -0.090939(     3)      2   0.095245(     5)      1  -0.000486(     6)     0
 -----------------------------------------------------------------------------------------------
 Internal  Forces:  Max     0.095244735 RMS     0.063747891
 Force constants in Cartesian coordinates: 
                1             2             3             4             5 
      1  0.405743D-01
      2  0.000000D+00  0.610738D-02
      3  0.000000D+00  0.000000D+00  0.397610D+00
      4 -0.500856D-01 -0.461857D-04  0.000000D+00  0.541027D+00
      5  0.000000D+00 -0.318807D-02  0.000000D+00  0.423837D-03  0.171010D-02
      6  0.298091D-01  0.144750D-03 -0.397610D+00  0.104086D+00 -0.132834D-02
      7  0.951128D-02  0.119390D-03  0.000000D+00 -0.502260D+00 -0.176225D-02
      8  0.000000D+00 -0.981557D-02  0.000000D+00 -0.632728D-03  0.504254D-02
      9 -0.298091D-01 -0.374177D-03  0.000000D+00 -0.984610D-01  0.209415D-02
     10  0.000000D+00 -0.732038D-04  0.000000D+00  0.113184D-01  0.133842D-02
     11  0.000000D+00  0.689626D-02  0.000000D+00  0.255077D-03 -0.356457D-02
     12  0.000000D+00  0.229427D-03  0.000000D+00 -0.562539D-02 -0.765811D-03
                6             7             8             9            10 
      6  0.502123D+00
      7 -0.984227D-01  0.717828D+00
      8  0.198302D-02 -0.713624D-02  0.164785D-01
      9 -0.122143D+00  0.430070D+00 -0.227529D-01  0.863374D+00
     10 -0.354728D-01 -0.225079D+00  0.776897D-02 -0.301800D+00  0.213760D+00
     11 -0.799434D-03  0.877910D-02 -0.117055D-01  0.210329D-01 -0.903418D-02
     12  0.176305D-01 -0.331647D+00  0.207698D-01 -0.741231D+00  0.337272D+00
               11            12 
     11  0.837377D-02
     12 -0.202334D-01  0.723600D+00
 Force constants in internal coordinates: 
                1             2             3             4             5 
      1  0.397610D+00
      2  0.000000D+00  0.524153D+00
      3  0.000000D+00  0.000000D+00  0.892008D+00
      4  0.000000D+00  0.000000D+00  0.000000D+00  0.160000D+00
      5  0.000000D+00  0.000000D+00  0.000000D+00  0.000000D+00  0.250000D+00
      6  0.000000D+00  0.000000D+00  0.000000D+00  0.000000D+00  0.000000D+00
                6 
      6  0.218584D-01
 Leave Link  716 at Sun Nov 14 20:01:47 2021, MaxMem=    8388608 cpu:       0.0
 (Enter C:\G09W\l103.exe)

 GradGradGradGradGradGradGradGradGradGradGradGradGradGradGradGradGradGrad
 Berny optimization.
 Search for a local minimum.
 Step number   1 out of a maximum of   20
 All quantities printed in internal units (Hartrees-Bohrs-Radians)
 Second derivative matrix not updated -- first step.
 The second derivative matrix:
                          B1        B2        B3        A1        A2
           B1           0.39761
           B2           0.00000   0.52415
           B3           0.00000   0.00000   0.89201
           A1           0.00000   0.00000   0.00000   0.16000
           A2           0.00000   0.00000   0.00000   0.00000   0.25000
           D1           0.00000   0.00000   0.00000   0.00000   0.00000
                          D1
           D1           0.02186
 ITU=  0
     Eigenvalues ---    0.02186   0.16000   0.25000   0.39761   0.52415
     Eigenvalues ---    0.89201
 RFO step:  Lambda=-5.16633937D-02 EMin= 2.18583598D-02
 Linear search not attempted -- first point.
 Maximum step size (   0.300) exceeded in Quadratic search.
    -- Step size scaled by   0.819
 Variable       Old X    -DE/DX   Delta X   Delta X   Delta X     New X
                                 (Linear)    (Quad)   (Total)
    B1        1.98579  -0.00195   0.00000  -0.00356  -0.00356   1.98223
    B2        2.57504  -0.08269   0.00000  -0.11765  -0.11765   2.45739
    B3        2.33304  -0.09094   0.00000  -0.07895  -0.07895   2.25409
    A1        1.87966   0.01411   0.00000   0.05462   0.05462   1.93428
    A2        2.34111   0.09524   0.00000   0.25865   0.25865   2.59977
    D1        3.17650  -0.00049   0.00000  -0.00542  -0.00542   3.17108
         Item               Value     Threshold  Converged?
 Maximum Force            0.095245     0.000450     NO 
 RMS     Force            0.063748     0.000300     NO 
 Maximum Displacement     0.258653     0.001800     NO 
 RMS     Displacement     0.122474     0.001200     NO 
 Predicted change in Energy=-2.731231D-02
 GradGradGradGradGradGradGradGradGradGradGradGradGradGradGradGradGradGrad

 Leave Link  103 at Sun Nov 14 20:01:47 2021, MaxMem=    8388608 cpu:       0.0
 (Enter C:\G09W\l202.exe)
 ---------------------------------------------------------------------------------------------------
                            Z-MATRIX (ANGSTROMS AND DEGREES)
   CD    Cent   Atom    N1       Length/X        N2       Alpha/Y        N3        Beta/Z          J
 ---------------------------------------------------------------------------------------------------
      1      1  H 
      2      2  N        1   1.048951(     1)
      3      3  C        2   1.300395(     2)      1  110.826(     4)
      4      4  O        3   1.192813(     3)      2  148.956(     5)      1  181.690(     6)      0
 ---------------------------------------------------------------------------------------------------
                         Z-Matrix orientation:                         
 ---------------------------------------------------------------------
 Center     Atomic      Atomic             Coordinates (Angstroms)
 Number     Number       Type             X           Y           Z
 ---------------------------------------------------------------------
      1          1           0        0.000000    0.000000    0.000000
      2          7           0        0.000000    0.000000    1.048951
      3          6           0        1.215433    0.000000    1.511281
      4          8           0        1.952022   -0.018138    2.449316
 ---------------------------------------------------------------------
                    Distance matrix (angstroms):
                    1          2          3          4
     1  H    0.000000
     2  N    1.048951   0.000000
     3  C    1.939394   1.300395   0.000000
     4  O    3.132071   2.402445   1.192813   0.000000
 Stoichiometry    CHNO
 Framework group  C1[X(CHNO)]
 Deg. of freedom     6
 Full point group                 C1      NOp   1
 RotChk:  IX=0 Diff= 8.78D-02
 Largest Abelian subgroup         C1      NOp   1
 Largest concise Abelian subgroup C1      NOp   1
                         Standard orientation:                         
 ---------------------------------------------------------------------
 Center     Atomic      Atomic             Coordinates (Angstroms)
 Number     Number       Type             X           Y           Z
 ---------------------------------------------------------------------
      1          1           0        1.839053    0.616859    0.011997
      2          7           0        1.179118   -0.198394   -0.000058
      3          6           0       -0.056461    0.207003   -0.005119
      4          8           0       -1.219265   -0.058765    0.002390
 ---------------------------------------------------------------------
 Rotational constants (GHZ):    344.6173638     10.8341014     10.5040948
 Leave Link  202 at Sun Nov 14 20:01:47 2021, MaxMem=    8388608 cpu:       0.0
 (Enter C:\G09W\l301.exe)
 Standard basis: STO-3G (5D, 7F)
 Ernie: Thresh=  0.10000D-02 Tol=  0.10000D-05 Strict=F.
 There are    16 symmetry adapted basis functions of A   symmetry.
 Integral buffers will be    262144 words long.
 Raffenetti 1 integral format.
 Two-electron integral symmetry is turned on.
    16 basis functions,    48 primitive gaussians,    16 cartesian basis functions
    11 alpha electrons       11 beta electrons
       nuclear repulsion energy        57.2409903277 Hartrees.
 IExCor=    0 DFT=F Ex=HF Corr=None ExCW=0 ScaHFX=  1.000000
 ScaDFX=  1.000000  1.000000  1.000000  1.000000 ScalE2=  1.000000  1.000000
 IRadAn=      0 IRanWt=     -1 IRanGd=            0 ICorTp=0
 NAtoms=    4 NActive=    4 NUniq=    4 SFac= 1.00D+00 NAtFMM=   60 NAOKFM=F Big=F
 Leave Link  301 at Sun Nov 14 20:01:47 2021, MaxMem=    8388608 cpu:       0.0
 (Enter C:\G09W\l302.exe)
 NPDir=0 NMtPBC=     1 NCelOv=     1 NCel=       1 NClECP=     1 NCelD=      1
         NCelK=      1 NCelE2=     1 NClLst=     1 CellRange=     0.0.
 One-electron integrals computed using PRISM.
 NBasis=    16 RedAO= T  NBF=    16
 NBsUse=    16 1.00D-06 NBFU=    16
 Leave Link  302 at Sun Nov 14 20:01:48 2021, MaxMem=    8388608 cpu:       0.0
 (Enter C:\G09W\l303.exe)
 DipDrv:  MaxL=1.
 Leave Link  303 at Sun Nov 14 20:01:48 2021, MaxMem=    8388608 cpu:       0.0
 (Enter C:\G09W\l401.exe)
 Initial guess read from the read-write file.
 B after Tr=     0.000000    0.000000    0.000000
         Rot=    1.000000    0.000000    0.000000    0.000000 Ang=   0.00 deg.
 Guess basis will be translated and rotated to current coordinates.
 Initial guess orbital symmetries:
       Occupied  (A) (A) (A) (A) (A) (A) (A) (A) (A) (A) (A)
       Virtual   (A) (A) (A) (A) (A)
 The electronic state of the initial guess is 1-A.
 Generating alternative initial guess.
 Harris functional with IExCor=  205 diagonalized for initial guess.
 ExpMin= 1.69D-01 ExpMax= 1.31D+02 ExpMxC= 1.31D+02 IAcc=1 IRadAn=         1 AccDes= 0.00D+00
 HarFok:  IExCor=  205 AccDes= 0.00D+00 IRadAn=         1 IDoV= 1
 ScaDFX=  1.000000  1.000000  1.000000  1.000000
 FoFCou: FMM=F IPFlag=           0 FMFlag=      100000 FMFlg1=           0
         NFxFlg=           0 DoJE=T BraDBF=F KetDBF=T FulRan=T
         Omega=  0.000000  0.000000  1.000000  0.000000  0.000000 ICntrl=     500 IOpCl=  0
         NMat0=    1 NMatS0=    1 NMatT0=    0 NMatD0=    1 NMtDS0=    0 NMtDT0=    0
         I1Cent=           4 NGrid=           0.
 Petite list used in FoFCou.
 Harris En= -165.536362982930    
 Leave Link  401 at Sun Nov 14 20:01:48 2021, MaxMem=    8388608 cpu:       0.0
 (Enter C:\G09W\l502.exe)
 Closed shell SCF:
 Requested convergence on RMS density matrix=1.00D-08 within 999 cycles.
 Requested convergence on MAX density matrix=1.00D-06.
 Requested convergence on             energy=1.00D-06.
 No special actions if energy rises.
 Using DIIS extrapolation, IDIIS=  1040.
 Integral symmetry usage will be decided dynamically.
 Keep R1 ints in memory in canonical form, NReq=1815018.
 IEnd=     1005688 IEndB=     1005688 NGot=     8388608 MDV=     8374038
 LenX=     8374038 LenY=     8373156
 Symmetry not used in FoFDir.
 MinBra= 0 MaxBra= 1 Meth= 1.
 IRaf=       0 NMat=   1 IRICut=       1 DoRegI=T DoRafI=F ISym2E= 0 JSym2E=0.

 Cycle   1  Pass 1  IDiag  1:
 E= -165.465041731633    
 DIIS: error= 2.44D-02 at cycle   1 NSaved=   1.
 NSaved= 1 IEnMin= 1 EnMin= -165.465041731633     IErMin= 1 ErrMin= 2.44D-02
 ErrMax= 2.44D-02 EMaxC= 1.00D-01 BMatC= 1.13D-02 BMatP= 1.13D-02
 IDIUse=3 WtCom= 7.56D-01 WtEn= 2.44D-01
 Coeff-Com:  0.100D+01
 Coeff-En:   0.100D+01
 Coeff:      0.100D+01
 Recover alternate guess density for next cycle.
 RMSDP=3.01D-02 MaxDP=1.89D-01              OVMax= 0.00D+00

 Cycle   2  Pass 1  IDiag  1:
 E= -165.448892406230     Delta-E=        0.016149325404 Rises=F Damp=F
 Switch densities from cycles 1 and 2 for lowest energy.
 DIIS: error= 5.14D-02 at cycle   2 NSaved=   2.
 NSaved= 2 IEnMin= 1 EnMin= -165.465041731633     IErMin= 1 ErrMin= 2.44D-02
 ErrMax= 5.14D-02 EMaxC= 1.00D+00 BMatC= 4.48D-02 BMatP= 1.13D-02
 IDIUse=1 WtCom= 1.00D+00 WtEn= 0.00D+00
 Coeff-Com:  0.767D+00 0.233D+00
 Coeff:      0.767D+00 0.233D+00
 Gap=     0.533 Goal=   None    Shift=    0.000
 RMSDP=1.46D-02 MaxDP=6.74D-02 DE= 1.61D-02 OVMax= 0.00D+00

 Cycle   3  Pass 1  IDiag  1:
 E= -165.487365560194     Delta-E=       -0.038473153964 Rises=F Damp=F
 DIIS: error= 7.27D-03 at cycle   3 NSaved=   3.
 NSaved= 3 IEnMin= 3 EnMin= -165.487365560194     IErMin= 3 ErrMin= 7.27D-03
 ErrMax= 7.27D-03 EMaxC= 1.00D+00 BMatC= 9.24D-04 BMatP= 1.13D-02
 IDIUse=1 WtCom= 1.00D+00 WtEn= 0.00D+00
 Coeff-Com: -0.221D+00 0.555D-01 0.117D+01
 Coeff:     -0.221D+00 0.555D-01 0.117D+01
 Gap=     0.548 Goal=   None    Shift=    0.000
 RMSDP=4.88D-03 MaxDP=2.27D-02 DE=-3.85D-02 OVMax= 0.00D+00

 Cycle   4  Pass 1  IDiag  1:
 E= -165.489195970005     Delta-E=       -0.001830409811 Rises=F Damp=F
 DIIS: error= 2.96D-03 at cycle   4 NSaved=   4.
 NSaved= 4 IEnMin= 4 EnMin= -165.489195970005     IErMin= 4 ErrMin= 2.96D-03
 ErrMax= 2.96D-03 EMaxC= 1.00D+00 BMatC= 1.09D-04 BMatP= 9.24D-04
 IDIUse=1 WtCom= 1.00D+00 WtEn= 0.00D+00
 Coeff-Com: -0.786D-01-0.130D-01 0.298D+00 0.794D+00
 Coeff:     -0.786D-01-0.130D-01 0.298D+00 0.794D+00
 Gap=     0.545 Goal=   None    Shift=    0.000
 RMSDP=9.71D-04 MaxDP=5.80D-03 DE=-1.83D-03 OVMax= 0.00D+00

 Cycle   5  Pass 1  IDiag  1:
 E= -165.489353211403     Delta-E=       -0.000157241399 Rises=F Damp=F
 DIIS: error= 7.82D-04 at cycle   5 NSaved=   5.
 NSaved= 5 IEnMin= 5 EnMin= -165.489353211403     IErMin= 5 ErrMin= 7.82D-04
 ErrMax= 7.82D-04 EMaxC= 1.00D+00 BMatC= 1.44D-05 BMatP= 1.09D-04
 IDIUse=1 WtCom= 1.00D+00 WtEn= 0.00D+00
 Coeff-Com: -0.866D-02-0.964D-02 0.220D-02 0.241D+00 0.775D+00
 Coeff:     -0.866D-02-0.964D-02 0.220D-02 0.241D+00 0.775D+00
 Gap=     0.545 Goal=   None    Shift=    0.000
 RMSDP=3.72D-04 MaxDP=2.01D-03 DE=-1.57D-04 OVMax= 0.00D+00

 Cycle   6  Pass 1  IDiag  1:
 E= -165.489377487096     Delta-E=       -0.000024275693 Rises=F Damp=F
 DIIS: error= 3.82D-04 at cycle   6 NSaved=   6.
 NSaved= 6 IEnMin= 6 EnMin= -165.489377487096     IErMin= 6 ErrMin= 3.82D-04
 ErrMax= 3.82D-04 EMaxC= 1.00D+00 BMatC= 1.82D-06 BMatP= 1.44D-05
 IDIUse=1 WtCom= 1.00D+00 WtEn= 0.00D+00
 Coeff-Com:  0.153D-01 0.331D-02-0.606D-01-0.156D+00-0.599D-01 0.126D+01
 Coeff:      0.153D-01 0.331D-02-0.606D-01-0.156D+00-0.599D-01 0.126D+01
 Gap=     0.545 Goal=   None    Shift=    0.000
 RMSDP=2.91D-04 MaxDP=1.40D-03 DE=-2.43D-05 OVMax= 0.00D+00

 Cycle   7  Pass 1  IDiag  1:
 E= -165.489386663124     Delta-E=       -0.000009176028 Rises=F Damp=F
 DIIS: error= 1.33D-04 at cycle   7 NSaved=   7.
 NSaved= 7 IEnMin= 7 EnMin= -165.489386663124     IErMin= 7 ErrMin= 1.33D-04
 ErrMax= 1.33D-04 EMaxC= 1.00D+00 BMatC= 3.39D-07 BMatP= 1.82D-06
 IDIUse=1 WtCom= 1.00D+00 WtEn= 0.00D+00
 Coeff-Com: -0.763D-02-0.111D-02 0.339D-01 0.745D-01-0.896D-01-0.672D+00
 Coeff-Com:  0.166D+01
 Coeff:     -0.763D-02-0.111D-02 0.339D-01 0.745D-01-0.896D-01-0.672D+00
 Coeff:      0.166D+01
 Gap=     0.545 Goal=   None    Shift=    0.000
 RMSDP=1.77D-04 MaxDP=9.94D-04 DE=-9.18D-06 OVMax= 0.00D+00

 Cycle   8  Pass 1  IDiag  1:
 E= -165.489388979067     Delta-E=       -0.000002315943 Rises=F Damp=F
 DIIS: error= 7.08D-05 at cycle   8 NSaved=   8.
 NSaved= 8 IEnMin= 8 EnMin= -165.489388979067     IErMin= 8 ErrMin= 7.08D-05
 ErrMax= 7.08D-05 EMaxC= 1.00D+00 BMatC= 6.68D-08 BMatP= 3.39D-07
 IDIUse=1 WtCom= 1.00D+00 WtEn= 0.00D+00
 Coeff-Com:  0.323D-02 0.457D-03-0.168D-01-0.229D-01 0.117D+00 0.214D+00
 Coeff-Com: -0.119D+01 0.190D+01
 Coeff:      0.323D-02 0.457D-03-0.168D-01-0.229D-01 0.117D+00 0.214D+00
 Coeff:     -0.119D+01 0.190D+01
 Gap=     0.545 Goal=   None    Shift=    0.000
 RMSDP=9.95D-05 MaxDP=5.16D-04 DE=-2.32D-06 OVMax= 0.00D+00

 Cycle   9  Pass 1  IDiag  1:
 E= -165.489389495520     Delta-E=       -0.000000516453 Rises=F Damp=F
 DIIS: error= 2.74D-05 at cycle   9 NSaved=   9.
 NSaved= 9 IEnMin= 9 EnMin= -165.489389495520     IErMin= 9 ErrMin= 2.74D-05
 ErrMax= 2.74D-05 EMaxC= 1.00D+00 BMatC= 8.14D-09 BMatP= 6.68D-08
 IDIUse=1 WtCom= 1.00D+00 WtEn= 0.00D+00
 Coeff-Com: -0.145D-02-0.212D-03 0.835D-02 0.512D-02-0.655D-01-0.874D-01
 Coeff-Com:  0.676D+00-0.143D+01 0.189D+01
 Coeff:     -0.145D-02-0.212D-03 0.835D-02 0.512D-02-0.655D-01-0.874D-01
 Coeff:      0.676D+00-0.143D+01 0.189D+01
 Gap=     0.545 Goal=   None    Shift=    0.000
 RMSDP=3.79D-05 MaxDP=2.17D-04 DE=-5.16D-07 OVMax= 0.00D+00

 Cycle  10  Pass 1  IDiag  1:
 E= -165.489389562673     Delta-E=       -0.000000067153 Rises=F Damp=F
 DIIS: error= 5.55D-06 at cycle  10 NSaved=  10.
 NSaved=10 IEnMin=10 EnMin= -165.489389562673     IErMin=10 ErrMin= 5.55D-06
 ErrMax= 5.55D-06 EMaxC= 1.00D+00 BMatC= 5.95D-10 BMatP= 8.14D-09
 IDIUse=1 WtCom= 1.00D+00 WtEn= 0.00D+00
 Coeff-Com:  0.545D-03 0.760D-04-0.322D-02-0.102D-02 0.273D-01 0.300D-01
 Coeff-Com: -0.277D+00 0.653D+00-0.116D+01 0.173D+01
 Coeff:      0.545D-03 0.760D-04-0.322D-02-0.102D-02 0.273D-01 0.300D-01
 Coeff:     -0.277D+00 0.653D+00-0.116D+01 0.173D+01
 Gap=     0.545 Goal=   None    Shift=    0.000
 RMSDP=9.50D-06 MaxDP=5.53D-05 DE=-6.72D-08 OVMax= 0.00D+00

 Cycle  11  Pass 1  IDiag  1:
 E= -165.489389567054     Delta-E=       -0.000000004381 Rises=F Damp=F
 DIIS: error= 1.25D-06 at cycle  11 NSaved=  11.
 NSaved=11 IEnMin=11 EnMin= -165.489389567054     IErMin=11 ErrMin= 1.25D-06
 ErrMax= 1.25D-06 EMaxC= 1.00D+00 BMatC= 2.28D-11 BMatP= 5.95D-10
 IDIUse=1 WtCom= 1.00D+00 WtEn= 0.00D+00
 Coeff-Com: -0.157D-03-0.231D-04 0.940D-03 0.314D-03-0.871D-02-0.797D-02
 Coeff-Com:  0.832D-01-0.203D+00 0.382D+00-0.697D+00 0.145D+01
 Coeff:     -0.157D-03-0.231D-04 0.940D-03 0.314D-03-0.871D-02-0.797D-02
 Coeff:      0.832D-01-0.203D+00 0.382D+00-0.697D+00 0.145D+01
 Gap=     0.545 Goal=   None    Shift=    0.000
 RMSDP=1.33D-06 MaxDP=5.10D-06 DE=-4.38D-09 OVMax= 0.00D+00

 Cycle  12  Pass 1  IDiag  1:
 E= -165.489389567193     Delta-E=       -0.000000000139 Rises=F Damp=F
 DIIS: error= 7.26D-07 at cycle  12 NSaved=  12.
 NSaved=12 IEnMin=12 EnMin= -165.489389567193     IErMin=12 ErrMin= 7.26D-07
 ErrMax= 7.26D-07 EMaxC= 1.00D+00 BMatC= 4.38D-12 BMatP= 2.28D-11
 IDIUse=1 WtCom= 1.00D+00 WtEn= 0.00D+00
 Coeff-Com:  0.536D-04 0.842D-05-0.326D-03-0.412D-04 0.311D-02 0.226D-02
 Coeff-Com: -0.284D-01 0.725D-01-0.146D+00 0.308D+00-0.984D+00 0.177D+01
 Coeff:      0.536D-04 0.842D-05-0.326D-03-0.412D-04 0.311D-02 0.226D-02
 Coeff:     -0.284D-01 0.725D-01-0.146D+00 0.308D+00-0.984D+00 0.177D+01
 Gap=     0.545 Goal=   None    Shift=    0.000
 RMSDP=7.01D-07 MaxDP=3.49D-06 DE=-1.39D-10 OVMax= 0.00D+00

 Cycle  13  Pass 1  IDiag  1:
 E= -165.489389567230     Delta-E=       -0.000000000038 Rises=F Damp=F
 DIIS: error= 3.76D-07 at cycle  13 NSaved=  13.
 NSaved=13 IEnMin=13 EnMin= -165.489389567230     IErMin=13 ErrMin= 3.76D-07
 ErrMax= 3.76D-07 EMaxC= 1.00D+00 BMatC= 1.08D-12 BMatP= 4.38D-12
 IDIUse=1 WtCom= 1.00D+00 WtEn= 0.00D+00
 Coeff-Com: -0.286D-04-0.455D-05 0.174D-03-0.239D-04-0.165D-02-0.912D-03
 Coeff-Com:  0.144D-01-0.384D-01 0.816D-01-0.188D+00 0.717D+00-0.188D+01
 Coeff-Com:  0.229D+01
 Coeff:     -0.286D-04-0.455D-05 0.174D-03-0.239D-04-0.165D-02-0.912D-03
 Coeff:      0.144D-01-0.384D-01 0.816D-01-0.188D+00 0.717D+00-0.188D+01
 Coeff:      0.229D+01
 Gap=     0.545 Goal=   None    Shift=    0.000
 RMSDP=5.75D-07 MaxDP=2.94D-06 DE=-3.76D-11 OVMax= 0.00D+00

 Cycle  14  Pass 1  IDiag  1:
 E= -165.489389567244     Delta-E=       -0.000000000013 Rises=F Damp=F
 DIIS: error= 9.10D-08 at cycle  14 NSaved=  14.
 NSaved=14 IEnMin=14 EnMin= -165.489389567244     IErMin=14 ErrMin= 9.10D-08
 ErrMax= 9.10D-08 EMaxC= 1.00D+00 BMatC= 1.24D-13 BMatP= 1.08D-12
 IDIUse=1 WtCom= 1.00D+00 WtEn= 0.00D+00
 Coeff-Com:  0.697D-05 0.108D-05-0.406D-04 0.527D-05 0.426D-03 0.130D-03
 Coeff-Com: -0.327D-02 0.933D-02-0.215D-01 0.555D-01-0.250D+00 0.828D+00
 Coeff-Com: -0.142D+01 0.180D+01
 Coeff:      0.697D-05 0.108D-05-0.406D-04 0.527D-05 0.426D-03 0.130D-03
 Coeff:     -0.327D-02 0.933D-02-0.215D-01 0.555D-01-0.250D+00 0.828D+00
 Coeff:     -0.142D+01 0.180D+01
 Gap=     0.545 Goal=   None    Shift=    0.000
 RMSDP=1.86D-07 MaxDP=9.16D-07 DE=-1.33D-11 OVMax= 0.00D+00

 Cycle  15  Pass 1  IDiag  1:
 E= -165.489389567245     Delta-E=       -0.000000000001 Rises=F Damp=F
 DIIS: error= 6.75D-09 at cycle  15 NSaved=  15.
 NSaved=15 IEnMin=15 EnMin= -165.489389567245     IErMin=15 ErrMin= 6.75D-09
 ErrMax= 6.75D-09 EMaxC= 1.00D+00 BMatC= 2.08D-15 BMatP= 1.24D-13
 IDIUse=1 WtCom= 1.00D+00 WtEn= 0.00D+00
 Coeff-Com: -0.104D-05-0.163D-06 0.590D-05-0.272D-05-0.690D-04 0.114D-04
 Coeff-Com:  0.413D-03-0.135D-02 0.344D-02-0.995D-02 0.489D-01-0.185D+00
 Coeff-Com:  0.363D+00-0.586D+00 0.137D+01
 Coeff:     -0.104D-05-0.163D-06 0.590D-05-0.272D-05-0.690D-04 0.114D-04
 Coeff:      0.413D-03-0.135D-02 0.344D-02-0.995D-02 0.489D-01-0.185D+00
 Coeff:      0.363D+00-0.586D+00 0.137D+01
 Gap=     0.545 Goal=   None    Shift=    0.000
 RMSDP=1.31D-08 MaxDP=5.56D-08 DE=-1.02D-12 OVMax= 0.00D+00

 Cycle  16  Pass 1  IDiag  1:
 E= -165.489389567245     Delta-E=        0.000000000000 Rises=F Damp=F
 DIIS: error= 1.68D-09 at cycle  16 NSaved=  16.
 NSaved=16 IEnMin=15 EnMin= -165.489389567245     IErMin=16 ErrMin= 1.68D-09
 ErrMax= 1.68D-09 EMaxC= 1.00D+00 BMatC= 4.18D-17 BMatP= 2.08D-15
 IDIUse=1 WtCom= 1.00D+00 WtEn= 0.00D+00
 Large coefficients: NSaved= 16 BigCof=    0.00 CofMax=   10.00 Det=-8.76D-17
 Inversion failed.  Reducing to 15 matrices.
 Coeff-Com:  0.184D-07-0.258D-07 0.116D-05 0.331D-05-0.151D-04 0.289D-04
 Coeff-Com:  0.115D-04-0.212D-03 0.115D-02-0.756D-02 0.343D-01-0.752D-01
 Coeff-Com:  0.135D+00-0.416D+00 0.133D+01
 Coeff:      0.184D-07-0.258D-07 0.116D-05 0.331D-05-0.151D-04 0.289D-04
 Coeff:      0.115D-04-0.212D-03 0.115D-02-0.756D-02 0.343D-01-0.752D-01
 Coeff:      0.135D+00-0.416D+00 0.133D+01
 Gap=     0.545 Goal=   None    Shift=    0.000
 RMSDP=1.50D-09 MaxDP=7.30D-09 DE= 1.71D-13 OVMax= 0.00D+00

 SCF Done:  E(RHF) =  -165.489389567     A.U. after   16 cycles
             Convg  =    0.1498D-08             -V/T =  2.0098
 KE= 1.638861032234D+02 PE=-5.041545512966D+02 EE= 1.175380681782D+02
 Leave Link  502 at Sun Nov 14 20:01:48 2021, MaxMem=    8388608 cpu:       0.0
 (Enter C:\G09W\l701.exe)
 Compute integral first derivatives.
 ... and contract with generalized density number  0.
 Leave Link  701 at Sun Nov 14 20:01:49 2021, MaxMem=    8388608 cpu:       0.0
 (Enter C:\G09W\l702.exe)
 L702 exits ... SP integral derivatives will be done elsewhere.
 Leave Link  702 at Sun Nov 14 20:01:49 2021, MaxMem=    8388608 cpu:       0.0
 (Enter C:\G09W\l703.exe)
 Compute integral first derivatives, UseDBF=F ICtDFT=           0.
 Integral derivatives from FoFDir, PRISM(SPDF).
 Calling FoFJK, ICntrl=      2127 FMM=F ISym2X=0 I1Cent= 0 IOpClX= 0 NMat=1 NMatS=1 NMatT=0.
 FoFCou: FMM=F IPFlag=           0 FMFlag=      100000 FMFlg1=         800
         NFxFlg=           0 DoJE=F BraDBF=F KetDBF=F FulRan=T
         Omega=  0.000000  0.000000  1.000000  0.000000  0.000000 ICntrl=    2127 IOpCl=  0
         NMat0=    1 NMatS0=    1 NMatT0=    0 NMatD0=    1 NMtDS0=    0 NMtDT0=    0
         I1Cent=           0 NGrid=           0.
 Symmetry not used in FoFCou.
 Leave Link  703 at Sun Nov 14 20:01:49 2021, MaxMem=    8388608 cpu:       0.0
 (Enter C:\G09W\l716.exe)
 Dipole        = 2.19242687D-01 7.67946429D-01 1.46033055D-03
 ***** Axes restored to original set *****
 -------------------------------------------------------------------
 Center     Atomic                   Forces (Hartrees/Bohr)
 Number     Number              X              Y              Z
 -------------------------------------------------------------------
      1        1          -0.003496715    0.000190400    0.006475441
      2        7           0.057758353    0.000679430   -0.013728377
      3        6          -0.061925636   -0.002116406    0.038539419
      4        8           0.007663997    0.001246576   -0.031286483
 -------------------------------------------------------------------
 Cartesian Forces:  Max     0.061925636 RMS     0.028784888
 -----------------------------------------------------------------------------------------------
                       Internal Coordinate Forces (Hartree/Bohr or radian)
  Cent   Atom   N1       Length/X         N2         Alpha/Y        N3         Beta/Z          J
 -----------------------------------------------------------------------------------------------
      1  H 
      2  N        1  -0.006475(     1)
      3  C        2  -0.048138(     2)      1   0.006931(     4)
      4  O        3  -0.019890(     3)      2   0.057177(     5)      1  -0.000353(     6)     0
 -----------------------------------------------------------------------------------------------
 Internal  Forces:  Max     0.057176843 RMS     0.031812351
 Leave Link  716 at Sun Nov 14 20:01:49 2021, MaxMem=    8388608 cpu:       0.0
 (Enter C:\G09W\l103.exe)

 GradGradGradGradGradGradGradGradGradGradGradGradGradGradGradGradGradGrad
 Berny optimization.
 Search for a local minimum.
 Step number   2 out of a maximum of   20
 All quantities printed in internal units (Hartrees-Bohrs-Radians)
 Update second derivatives using D2CorN and points    1    2
 DE= -3.28D-02 DEPred=-2.73D-02 R= 1.20D+00
 SS=  1.41D+00  RLast= 3.00D-01 DXNew= 5.0454D-01 9.0000D-01
 Trust test= 1.20D+00 RLast= 3.00D-01 DXMaxT set to 5.05D-01
 The second derivative matrix:
                          B1        B2        B3        A1        A2
           B1           0.39737
           B2          -0.00442   0.48871
           B3          -0.00259  -0.01148   0.89256
           A1           0.00183   0.00924   0.00049   0.15905
           A2           0.00906   0.05634   0.01076  -0.01031   0.17357
           D1          -0.00018  -0.00081   0.00003   0.00004   0.00078
                          D1
           D1           0.02186
 ITU=  1  0
     Eigenvalues ---    0.02185   0.14903   0.17304   0.39770   0.49850
     Eigenvalues ---    0.89301
 RFO step:  Lambda=-3.71415761D-03 EMin= 2.18522857D-02
 Quartic linear search produced a step of  0.89416.
 Variable       Old X    -DE/DX   Delta X   Delta X   Delta X     New X
                                 (Linear)    (Quad)   (Total)
    B1        1.98223  -0.00648  -0.00319  -0.02711  -0.03030   1.95193
    B2        2.45739  -0.04814  -0.10520  -0.02870  -0.13390   2.32349
    B3        2.25409  -0.01989  -0.07059   0.05204  -0.01855   2.23554
    A1        1.93428   0.00693   0.04884  -0.00842   0.04042   1.97469
    A2        2.59977   0.05718   0.23128   0.06225   0.29353   2.89330
    D1        3.17108  -0.00035  -0.00484  -0.00125  -0.00609   3.16499
         Item               Value     Threshold  Converged?
 Maximum Force            0.057177     0.000450     NO 
 RMS     Force            0.031812     0.000300     NO 
 Maximum Displacement     0.293529     0.001800     NO 
 RMS     Displacement     0.133555     0.001200     NO 
 Predicted change in Energy=-1.432998D-02
 GradGradGradGradGradGradGradGradGradGradGradGradGradGradGradGradGradGrad

 Leave Link  103 at Sun Nov 14 20:01:50 2021, MaxMem=    8388608 cpu:       0.0
 (Enter C:\G09W\l202.exe)
 ---------------------------------------------------------------------------------------------------
                            Z-MATRIX (ANGSTROMS AND DEGREES)
   CD    Cent   Atom    N1       Length/X        N2       Alpha/Y        N3        Beta/Z          J
 ---------------------------------------------------------------------------------------------------
      1      1  H 
      2      2  N        1   1.032916(     1)
      3      3  C        2   1.229538(     2)      1  113.142(     4)
      4      4  O        3   1.182994(     3)      2  165.774(     5)      1  181.340(     6)      0
 ---------------------------------------------------------------------------------------------------
                         Z-Matrix orientation:                         
 ---------------------------------------------------------------------
 Center     Atomic      Atomic             Coordinates (Angstroms)
 Number     Number       Type             X           Y           Z
 ---------------------------------------------------------------------
      1          1           0        0.000000    0.000000    0.000000
      2          7           0        0.000000    0.000000    1.032916
      3          6           0        1.130605    0.000000    1.516131
      4          8           0        2.070825   -0.006801    2.234055
 ---------------------------------------------------------------------
                    Distance matrix (angstroms):
                    1          2          3          4
     1  H    0.000000
     2  N    1.032916   0.000000
     3  C    1.891275   1.229538   0.000000
     4  O    3.046205   2.393971   1.182994   0.000000
 Stoichiometry    CHNO
 Framework group  C1[X(CHNO)]
 Deg. of freedom     6
 Full point group                 C1      NOp   1
 RotChk:  IX=2 Diff= 1.32D-01
 Largest Abelian subgroup         C1      NOp   1
 Largest concise Abelian subgroup C1      NOp   1
                         Standard orientation:                         
 ---------------------------------------------------------------------
 Center     Atomic      Atomic             Coordinates (Angstroms)
 Number     Number       Type             X           Y           Z
 ---------------------------------------------------------------------
      1          1           0        1.745351    0.704859    0.002547
      2          7           0        1.172472   -0.154631    0.000625
      3          6           0       -0.036304    0.070349   -0.002540
      4          8           0       -1.216854   -0.005567    0.001040
 ---------------------------------------------------------------------
 Rotational constants (GHZ):    594.8860549     10.9899033     10.7906057
 Leave Link  202 at Sun Nov 14 20:01:50 2021, MaxMem=    8388608 cpu:       0.0
 (Enter C:\G09W\l301.exe)
 Standard basis: STO-3G (5D, 7F)
 Ernie: Thresh=  0.10000D-02 Tol=  0.10000D-05 Strict=F.
 There are    16 symmetry adapted basis functions of A   symmetry.
 Integral buffers will be    262144 words long.
 Raffenetti 1 integral format.
 Two-electron integral symmetry is turned on.
    16 basis functions,    48 primitive gaussians,    16 cartesian basis functions
    11 alpha electrons       11 beta electrons
       nuclear repulsion energy        58.5809127408 Hartrees.
 IExCor=    0 DFT=F Ex=HF Corr=None ExCW=0 ScaHFX=  1.000000
 ScaDFX=  1.000000  1.000000  1.000000  1.000000 ScalE2=  1.000000  1.000000
 IRadAn=      0 IRanWt=     -1 IRanGd=            0 ICorTp=0
 NAtoms=    4 NActive=    4 NUniq=    4 SFac= 1.00D+00 NAtFMM=   60 NAOKFM=F Big=F
 Leave Link  301 at Sun Nov 14 20:01:50 2021, MaxMem=    8388608 cpu:       0.0
 (Enter C:\G09W\l302.exe)
 NPDir=0 NMtPBC=     1 NCelOv=     1 NCel=       1 NClECP=     1 NCelD=      1
         NCelK=      1 NCelE2=     1 NClLst=     1 CellRange=     0.0.
 One-electron integrals computed using PRISM.
 NBasis=    16 RedAO= T  NBF=    16
 NBsUse=    16 1.00D-06 NBFU=    16
 Leave Link  302 at Sun Nov 14 20:01:50 2021, MaxMem=    8388608 cpu:       0.0
 (Enter C:\G09W\l303.exe)
 DipDrv:  MaxL=1.
 Leave Link  303 at Sun Nov 14 20:01:50 2021, MaxMem=    8388608 cpu:       0.0
 (Enter C:\G09W\l401.exe)
 Initial guess read from the read-write file.
 B after Tr=     0.000000    0.000000    0.000000
         Rot=    1.000000    0.000000    0.000000    0.000000 Ang=   0.00 deg.
 Guess basis will be translated and rotated to current coordinates.
 Initial guess orbital symmetries:
       Occupied  (A) (A) (A) (A) (A) (A) (A) (A) (A) (A) (A)
       Virtual   (A) (A) (A) (A) (A)
 The electronic state of the initial guess is 1-A.
 Generating alternative initial guess.
 Harris functional with IExCor=  205 diagonalized for initial guess.
 ExpMin= 1.69D-01 ExpMax= 1.31D+02 ExpMxC= 1.31D+02 IAcc=1 IRadAn=         1 AccDes= 0.00D+00
 HarFok:  IExCor=  205 AccDes= 0.00D+00 IRadAn=         1 IDoV= 1
 ScaDFX=  1.000000  1.000000  1.000000  1.000000
 FoFCou: FMM=F IPFlag=           0 FMFlag=      100000 FMFlg1=           0
         NFxFlg=           0 DoJE=T BraDBF=F KetDBF=T FulRan=T
         Omega=  0.000000  0.000000  1.000000  0.000000  0.000000 ICntrl=     500 IOpCl=  0
         NMat0=    1 NMatS0=    1 NMatT0=    0 NMatD0=    1 NMtDS0=    0 NMtDT0=    0
         I1Cent=           4 NGrid=           0.
 Petite list used in FoFCou.
 Harris En= -165.543273460049    
 Leave Link  401 at Sun Nov 14 20:01:51 2021, MaxMem=    8388608 cpu:       0.0
 (Enter C:\G09W\l502.exe)
 Closed shell SCF:
 Requested convergence on RMS density matrix=1.00D-08 within 999 cycles.
 Requested convergence on MAX density matrix=1.00D-06.
 Requested convergence on             energy=1.00D-06.
 No special actions if energy rises.
 Using DIIS extrapolation, IDIIS=  1040.
 Integral symmetry usage will be decided dynamically.
 Keep R1 ints in memory in canonical form, NReq=1815018.
 IEnd=     1005688 IEndB=     1005688 NGot=     8388608 MDV=     8374038
 LenX=     8374038 LenY=     8373156
 Symmetry not used in FoFDir.
 MinBra= 0 MaxBra= 1 Meth= 1.
 IRaf=       0 NMat=   1 IRICut=       1 DoRegI=T DoRafI=F ISym2E= 0 JSym2E=0.

 Cycle   1  Pass 1  IDiag  1:
 E= -165.469964945850    
 DIIS: error= 2.70D-02 at cycle   1 NSaved=   1.
 NSaved= 1 IEnMin= 1 EnMin= -165.469964945850     IErMin= 1 ErrMin= 2.70D-02
 ErrMax= 2.70D-02 EMaxC= 1.00D-01 BMatC= 1.60D-02 BMatP= 1.60D-02
 IDIUse=3 WtCom= 7.30D-01 WtEn= 2.70D-01
 Coeff-Com:  0.100D+01
 Coeff-En:   0.100D+01
 Coeff:      0.100D+01
 Recover alternate guess density for next cycle.
 RMSDP=3.02D-02 MaxDP=1.58D-01              OVMax= 0.00D+00

 Cycle   2  Pass 1  IDiag  1:
 E= -165.467660627598     Delta-E=        0.002304318252 Rises=F Damp=F
 Switch densities from cycles 1 and 2 for lowest energy.
 DIIS: error= 5.01D-02 at cycle   2 NSaved=   2.
 NSaved= 2 IEnMin= 1 EnMin= -165.469964945850     IErMin= 1 ErrMin= 2.70D-02
 ErrMax= 5.01D-02 EMaxC= 1.00D+00 BMatC= 4.13D-02 BMatP= 1.60D-02
 IDIUse=1 WtCom= 1.00D+00 WtEn= 0.00D+00
 Coeff-Com:  0.702D+00 0.298D+00
 Coeff:      0.702D+00 0.298D+00
 Gap=     0.593 Goal=   None    Shift=    0.000
 RMSDP=1.73D-02 MaxDP=7.22D-02 DE= 2.30D-03 OVMax= 0.00D+00

 Cycle   3  Pass 1  IDiag  1:
 E= -165.499541657746     Delta-E=       -0.031881030149 Rises=F Damp=F
 DIIS: error= 8.06D-03 at cycle   3 NSaved=   3.
 NSaved= 3 IEnMin= 3 EnMin= -165.499541657746     IErMin= 3 ErrMin= 8.06D-03
 ErrMax= 8.06D-03 EMaxC= 1.00D+00 BMatC= 1.08D-03 BMatP= 1.60D-02
 IDIUse=1 WtCom= 1.00D+00 WtEn= 0.00D+00
 Coeff-Com: -0.203D+00 0.546D-01 0.115D+01
 Coeff:     -0.203D+00 0.546D-01 0.115D+01
 Gap=     0.606 Goal=   None    Shift=    0.000
 RMSDP=5.00D-03 MaxDP=1.97D-02 DE=-3.19D-02 OVMax= 0.00D+00

 Cycle   4  Pass 1  IDiag  1:
 E= -165.501536981739     Delta-E=       -0.001995323992 Rises=F Damp=F
 DIIS: error= 3.14D-03 at cycle   4 NSaved=   4.
 NSaved= 4 IEnMin= 4 EnMin= -165.501536981739     IErMin= 4 ErrMin= 3.14D-03
 ErrMax= 3.14D-03 EMaxC= 1.00D+00 BMatC= 9.90D-05 BMatP= 1.08D-03
 IDIUse=1 WtCom= 1.00D+00 WtEn= 0.00D+00
 Coeff-Com: -0.547D-01-0.187D-01 0.220D+00 0.853D+00
 Coeff:     -0.547D-01-0.187D-01 0.220D+00 0.853D+00
 Gap=     0.604 Goal=   None    Shift=    0.000
 RMSDP=1.02D-03 MaxDP=6.91D-03 DE=-2.00D-03 OVMax= 0.00D+00

 Cycle   5  Pass 1  IDiag  1:
 E= -165.501699547395     Delta-E=       -0.000162565656 Rises=F Damp=F
 DIIS: error= 9.13D-04 at cycle   5 NSaved=   5.
 NSaved= 5 IEnMin= 5 EnMin= -165.501699547395     IErMin= 5 ErrMin= 9.13D-04
 ErrMax= 9.13D-04 EMaxC= 1.00D+00 BMatC= 1.50D-05 BMatP= 9.90D-05
 IDIUse=1 WtCom= 1.00D+00 WtEn= 0.00D+00
 Coeff-Com:  0.117D-02-0.718D-02-0.390D-01 0.177D+00 0.868D+00
 Coeff:      0.117D-02-0.718D-02-0.390D-01 0.177D+00 0.868D+00
 Gap=     0.604 Goal=   None    Shift=    0.000
 RMSDP=4.77D-04 MaxDP=2.33D-03 DE=-1.63D-04 OVMax= 0.00D+00

 Cycle   6  Pass 1  IDiag  1:
 E= -165.501732425010     Delta-E=       -0.000032877615 Rises=F Damp=F
 DIIS: error= 7.18D-04 at cycle   6 NSaved=   6.
 NSaved= 6 IEnMin= 6 EnMin= -165.501732425010     IErMin= 6 ErrMin= 7.18D-04
 ErrMax= 7.18D-04 EMaxC= 1.00D+00 BMatC= 3.06D-06 BMatP= 1.50D-05
 IDIUse=1 WtCom= 1.00D+00 WtEn= 0.00D+00
 Coeff-Com:  0.151D-01 0.394D-02-0.672D-01-0.177D+00 0.118D+00 0.111D+01
 Coeff:      0.151D-01 0.394D-02-0.672D-01-0.177D+00 0.118D+00 0.111D+01
 Gap=     0.605 Goal=   None    Shift=    0.000
 RMSDP=3.62D-04 MaxDP=2.17D-03 DE=-3.29D-05 OVMax= 0.00D+00

 Cycle   7  Pass 1  IDiag  1:
 E= -165.501747020476     Delta-E=       -0.000014595466 Rises=F Damp=F
 DIIS: error= 2.21D-04 at cycle   7 NSaved=   7.
 NSaved= 7 IEnMin= 7 EnMin= -165.501747020476     IErMin= 7 ErrMin= 2.21D-04
 ErrMax= 2.21D-04 EMaxC= 1.00D+00 BMatC= 5.93D-07 BMatP= 3.06D-06
 IDIUse=1 WtCom= 1.00D+00 WtEn= 0.00D+00
 Coeff-Com: -0.871D-02-0.163D-02 0.436D-01 0.103D+00-0.224D+00-0.705D+00
 Coeff-Com:  0.179D+01
 Coeff:     -0.871D-02-0.163D-02 0.436D-01 0.103D+00-0.224D+00-0.705D+00
 Coeff:      0.179D+01
 Gap=     0.605 Goal=   None    Shift=    0.000
 RMSDP=2.63D-04 MaxDP=1.49D-03 DE=-1.46D-05 OVMax= 0.00D+00

 Cycle   8  Pass 1  IDiag  1:
 E= -165.501751451016     Delta-E=       -0.000004430540 Rises=F Damp=F
 DIIS: error= 7.72D-05 at cycle   8 NSaved=   8.
 NSaved= 8 IEnMin= 8 EnMin= -165.501751451016     IErMin= 8 ErrMin= 7.72D-05
 ErrMax= 7.72D-05 EMaxC= 1.00D+00 BMatC= 8.51D-08 BMatP= 5.93D-07
 IDIUse=1 WtCom= 1.00D+00 WtEn= 0.00D+00
 Coeff-Com:  0.314D-02 0.586D-03-0.180D-01-0.275D-01 0.158D+00 0.154D+00
 Coeff-Com: -0.101D+01 0.174D+01
 Coeff:      0.314D-02 0.586D-03-0.180D-01-0.275D-01 0.158D+00 0.154D+00
 Coeff:     -0.101D+01 0.174D+01
 Gap=     0.605 Goal=   None    Shift=    0.000
 RMSDP=1.05D-04 MaxDP=5.63D-04 DE=-4.43D-06 OVMax= 0.00D+00

 Cycle   9  Pass 1  IDiag  1:
 E= -165.501751973701     Delta-E=       -0.000000522685 Rises=F Damp=F
 DIIS: error= 1.47D-05 at cycle   9 NSaved=   9.
 NSaved= 9 IEnMin= 9 EnMin= -165.501751973701     IErMin= 9 ErrMin= 1.47D-05
 ErrMax= 1.47D-05 EMaxC= 1.00D+00 BMatC= 4.65D-09 BMatP= 8.51D-08
 IDIUse=1 WtCom= 1.00D+00 WtEn= 0.00D+00
 Coeff-Com: -0.791D-03-0.140D-03 0.502D-02 0.171D-02-0.436D-01-0.275D-01
 Coeff-Com:  0.316D+00-0.778D+00 0.153D+01
 Coeff:     -0.791D-03-0.140D-03 0.502D-02 0.171D-02-0.436D-01-0.275D-01
 Coeff:      0.316D+00-0.778D+00 0.153D+01
 Gap=     0.605 Goal=   None    Shift=    0.000
 RMSDP=1.93D-05 MaxDP=1.20D-04 DE=-5.23D-07 OVMax= 0.00D+00

 Cycle  10  Pass 1  IDiag  1:
 E= -165.501751992821     Delta-E=       -0.000000019121 Rises=F Damp=F
 DIIS: error= 2.71D-06 at cycle  10 NSaved=  10.
 NSaved=10 IEnMin=10 EnMin= -165.501751992821     IErMin=10 ErrMin= 2.71D-06
 ErrMax= 2.71D-06 EMaxC= 1.00D+00 BMatC= 1.31D-10 BMatP= 4.65D-09
 IDIUse=1 WtCom= 1.00D+00 WtEn= 0.00D+00
 Coeff-Com:  0.230D-03 0.377D-04-0.148D-02-0.840D-04 0.142D-01 0.545D-02
 Coeff-Com: -0.100D+00 0.277D+00-0.674D+00 0.148D+01
 Coeff:      0.230D-03 0.377D-04-0.148D-02-0.840D-04 0.142D-01 0.545D-02
 Coeff:     -0.100D+00 0.277D+00-0.674D+00 0.148D+01
 Gap=     0.605 Goal=   None    Shift=    0.000
 RMSDP=2.41D-06 MaxDP=1.20D-05 DE=-1.91D-08 OVMax= 0.00D+00

 Cycle  11  Pass 1  IDiag  1:
 E= -165.501751993277     Delta-E=       -0.000000000456 Rises=F Damp=F
 DIIS: error= 4.69D-07 at cycle  11 NSaved=  11.
 NSaved=11 IEnMin=11 EnMin= -165.501751993277     IErMin=11 ErrMin= 4.69D-07
 ErrMax= 4.69D-07 EMaxC= 1.00D+00 BMatC= 4.84D-12 BMatP= 1.31D-10
 IDIUse=1 WtCom= 1.00D+00 WtEn= 0.00D+00
 Coeff-Com: -0.638D-04-0.116D-04 0.420D-03-0.352D-04-0.419D-02-0.994D-03
 Coeff-Com:  0.285D-01-0.822D-01 0.210D+00-0.585D+00 0.143D+01
 Coeff:     -0.638D-04-0.116D-04 0.420D-03-0.352D-04-0.419D-02-0.994D-03
 Coeff:      0.285D-01-0.822D-01 0.210D+00-0.585D+00 0.143D+01
 Gap=     0.605 Goal=   None    Shift=    0.000
 RMSDP=4.96D-07 MaxDP=2.24D-06 DE=-4.56D-10 OVMax= 0.00D+00

 Cycle  12  Pass 1  IDiag  1:
 E= -165.501751993300     Delta-E=       -0.000000000023 Rises=F Damp=F
 DIIS: error= 1.75D-07 at cycle  12 NSaved=  12.
 NSaved=12 IEnMin=12 EnMin= -165.501751993300     IErMin=12 ErrMin= 1.75D-07
 ErrMax= 1.75D-07 EMaxC= 1.00D+00 BMatC= 5.13D-13 BMatP= 4.84D-12
 IDIUse=1 WtCom= 1.00D+00 WtEn= 0.00D+00
 Coeff-Com:  0.170D-04 0.326D-05-0.114D-03 0.621D-04 0.111D-02 0.263D-06
 Coeff-Com: -0.721D-02 0.226D-01-0.614D-01 0.201D+00-0.754D+00 0.160D+01
 Coeff:      0.170D-04 0.326D-05-0.114D-03 0.621D-04 0.111D-02 0.263D-06
 Coeff:     -0.721D-02 0.226D-01-0.614D-01 0.201D+00-0.754D+00 0.160D+01
 Gap=     0.605 Goal=   None    Shift=    0.000
 RMSDP=1.76D-07 MaxDP=7.08D-07 DE=-2.27D-11 OVMax= 0.00D+00

 Cycle  13  Pass 1  IDiag  1:
 E= -165.501751993302     Delta-E=       -0.000000000002 Rises=F Damp=F
 DIIS: error= 8.36D-08 at cycle  13 NSaved=  13.
 NSaved=13 IEnMin=13 EnMin= -165.501751993302     IErMin=13 ErrMin= 8.36D-08
 ErrMax= 8.36D-08 EMaxC= 1.00D+00 BMatC= 5.16D-14 BMatP= 5.13D-13
 IDIUse=1 WtCom= 1.00D+00 WtEn= 0.00D+00
 Coeff-Com: -0.579D-05-0.109D-05 0.385D-04-0.325D-04-0.377D-03 0.787D-04
 Coeff-Com:  0.229D-02-0.777D-02 0.220D-01-0.783D-01 0.345D+00-0.956D+00
 Coeff-Com:  0.167D+01
 Coeff:     -0.579D-05-0.109D-05 0.385D-04-0.325D-04-0.377D-03 0.787D-04
 Coeff:      0.229D-02-0.777D-02 0.220D-01-0.783D-01 0.345D+00-0.956D+00
 Coeff:      0.167D+01
 Gap=     0.605 Goal=   None    Shift=    0.000
 RMSDP=7.11D-08 MaxDP=3.74D-07 DE=-2.19D-12 OVMax= 0.00D+00

 Cycle  14  Pass 1  IDiag  1:
 E= -165.501751993303     Delta-E=       -0.000000000001 Rises=F Damp=F
 DIIS: error= 3.64D-08 at cycle  14 NSaved=  14.
 NSaved=14 IEnMin=14 EnMin= -165.501751993303     IErMin=14 ErrMin= 3.64D-08
 ErrMax= 3.64D-08 EMaxC= 1.00D+00 BMatC= 1.01D-14 BMatP= 5.16D-14
 IDIUse=1 WtCom= 1.00D+00 WtEn= 0.00D+00
 Coeff-Com:  0.221D-05 0.406D-06-0.144D-04 0.179D-04 0.149D-03-0.838D-04
 Coeff-Com: -0.771D-03 0.301D-02-0.913D-02 0.358D-01-0.184D+00 0.606D+00
 Coeff-Com: -0.158D+01 0.212D+01
 Coeff:      0.221D-05 0.406D-06-0.144D-04 0.179D-04 0.149D-03-0.838D-04
 Coeff:     -0.771D-03 0.301D-02-0.913D-02 0.358D-01-0.184D+00 0.606D+00
 Coeff:     -0.158D+01 0.212D+01
 Gap=     0.605 Goal=   None    Shift=    0.000
 RMSDP=4.52D-08 MaxDP=2.44D-07 DE=-6.82D-13 OVMax= 0.00D+00

 Cycle  15  Pass 1  IDiag  1:
 E= -165.501751993303     Delta-E=        0.000000000000 Rises=F Damp=F
 DIIS: error= 5.99D-09 at cycle  15 NSaved=  15.
 NSaved=15 IEnMin=15 EnMin= -165.501751993303     IErMin=15 ErrMin= 5.99D-09
 ErrMax= 5.99D-09 EMaxC= 1.00D+00 BMatC= 5.36D-16 BMatP= 1.01D-14
 IDIUse=1 WtCom= 1.00D+00 WtEn= 0.00D+00
 Coeff-Com: -0.361D-06-0.632D-07 0.231D-05-0.535D-05-0.254D-04 0.337D-04
 Coeff-Com:  0.826D-04-0.482D-03 0.163D-02-0.716D-02 0.418D-01-0.155D+00
 Coeff-Com:  0.490D+00-0.894D+00 0.152D+01
 Coeff:     -0.361D-06-0.632D-07 0.231D-05-0.535D-05-0.254D-04 0.337D-04
 Coeff:      0.826D-04-0.482D-03 0.163D-02-0.716D-02 0.418D-01-0.155D+00
 Coeff:      0.490D+00-0.894D+00 0.152D+01
 Gap=     0.605 Goal=   None    Shift=    0.000
 RMSDP=8.89D-09 MaxDP=4.58D-08 DE=-3.13D-13 OVMax= 0.00D+00

 SCF Done:  E(RHF) =  -165.501751993     A.U. after   15 cycles
             Convg  =    0.8891D-08             -V/T =  2.0093
 KE= 1.639753733976D+02 PE=-5.067470411926D+02 EE= 1.186890030609D+02
 Leave Link  502 at Sun Nov 14 20:01:51 2021, MaxMem=    8388608 cpu:       0.0
 (Enter C:\G09W\l701.exe)
 Compute integral first derivatives.
 ... and contract with generalized density number  0.
 Leave Link  701 at Sun Nov 14 20:01:51 2021, MaxMem=    8388608 cpu:       0.0
 (Enter C:\G09W\l702.exe)
 L702 exits ... SP integral derivatives will be done elsewhere.
 Leave Link  702 at Sun Nov 14 20:01:52 2021, MaxMem=    8388608 cpu:       0.0
 (Enter C:\G09W\l703.exe)
 Compute integral first derivatives, UseDBF=F ICtDFT=           0.
 Integral derivatives from FoFDir, PRISM(SPDF).
 Calling FoFJK, ICntrl=      2127 FMM=F ISym2X=0 I1Cent= 0 IOpClX= 0 NMat=1 NMatS=1 NMatT=0.
 FoFCou: FMM=F IPFlag=           0 FMFlag=      100000 FMFlg1=         800
         NFxFlg=           0 DoJE=F BraDBF=F KetDBF=F FulRan=T
         Omega=  0.000000  0.000000  1.000000  0.000000  0.000000 ICntrl=    2127 IOpCl=  0
         NMat0=    1 NMatS0=    1 NMatT0=    0 NMatD0=    1 NMtDS0=    0 NMtDT0=    0
         I1Cent=           0 NGrid=           0.
 Symmetry not used in FoFCou.
 Leave Link  703 at Sun Nov 14 20:01:52 2021, MaxMem=    8388608 cpu:       0.0
 (Enter C:\G09W\l716.exe)
 Dipole        = 2.68779927D-01 6.76694796D-01-2.31218663D-03
 ***** Axes restored to original set *****
 -------------------------------------------------------------------
 Center     Atomic                   Forces (Hartrees/Bohr)
 Number     Number              X              Y              Z
 -------------------------------------------------------------------
      1        1          -0.005691138    0.000081330   -0.003901701
      2        7          -0.024544686    0.000277161   -0.020609099
      3        6           0.025163082   -0.000752878    0.028319828
      4        8           0.005072742    0.000394388   -0.003809027
 -------------------------------------------------------------------
 Cartesian Forces:  Max     0.028319828 RMS     0.014580322
 -----------------------------------------------------------------------------------------------
                       Internal Coordinate Forces (Hartree/Bohr or radian)
  Cent   Atom   N1       Length/X         N2         Alpha/Y        N3         Beta/Z          J
 -----------------------------------------------------------------------------------------------
      1  H 
      2  N        1   0.003902(     1)
      3  C        2   0.037436(     2)      1   0.011109(     4)
      4  O        3   0.001718(     3)      2   0.013667(     5)      1  -0.000146(     6)     0
 -----------------------------------------------------------------------------------------------
 Internal  Forces:  Max     0.037435806 RMS     0.016979526
 Leave Link  716 at Sun Nov 14 20:01:52 2021, MaxMem=    8388608 cpu:       0.0
 (Enter C:\G09W\l103.exe)

 GradGradGradGradGradGradGradGradGradGradGradGradGradGradGradGradGradGrad
 Berny optimization.
 Search for a local minimum.
 Step number   3 out of a maximum of   20
 All quantities printed in internal units (Hartrees-Bohrs-Radians)
 Update second derivatives using D2CorN and points    2    3
 DE= -1.24D-02 DEPred=-1.43D-02 R= 8.63D-01
 SS=  1.41D+00  RLast= 3.27D-01 DXNew= 8.4853D-01 9.8142D-01
 Trust test= 8.63D-01 RLast= 3.27D-01 DXMaxT set to 8.49D-01
 The second derivative matrix:
                          B1        B2        B3        A1        A2
           B1           0.39786
           B2           0.00195   0.53550
           B3          -0.00105  -0.00208   0.89427
           A1           0.00240   0.00611  -0.00082   0.15668
           A2           0.00657   0.00443  -0.00282  -0.01873   0.17632
           D1          -0.00007   0.00052   0.00034   0.00014   0.00018
                          D1
           D1           0.02188
 ITU=  1  1  0
     Eigenvalues ---    0.02188   0.14509   0.18755   0.39803   0.53567
     Eigenvalues ---    0.89429
 RFO step:  Lambda=-4.45016241D-03 EMin= 2.18819261D-02
 Quartic linear search produced a step of -0.02432.
 Variable       Old X    -DE/DX   Delta X   Delta X   Delta X     New X
                                 (Linear)    (Quad)   (Total)
    B1        1.95193   0.00390   0.00074   0.00679   0.00752   1.95945
    B2        2.32349   0.03744   0.00326   0.06364   0.06690   2.39039
    B3        2.23554   0.00172   0.00045   0.00182   0.00227   2.23780
    A1        1.97469   0.01111  -0.00098   0.07640   0.07542   2.05011
    A2        2.89330   0.01367  -0.00714   0.08910   0.08196   2.97526
    D1        3.16499  -0.00015   0.00015  -0.00823  -0.00808   3.15691
         Item               Value     Threshold  Converged?
 Maximum Force            0.037436     0.000450     NO 
 RMS     Force            0.016980     0.000300     NO 
 Maximum Displacement     0.081963     0.001800     NO 
 RMS     Displacement     0.053242     0.001200     NO 
 Predicted change in Energy=-2.302157D-03
 GradGradGradGradGradGradGradGradGradGradGradGradGradGradGradGradGradGrad

 Leave Link  103 at Sun Nov 14 20:01:52 2021, MaxMem=    8388608 cpu:       0.0
 (Enter C:\G09W\l202.exe)
 ---------------------------------------------------------------------------------------------------
                            Z-MATRIX (ANGSTROMS AND DEGREES)
   CD    Cent   Atom    N1       Length/X        N2       Alpha/Y        N3        Beta/Z          J
 ---------------------------------------------------------------------------------------------------
      1      1  H 
      2      2  N        1   1.036897(     1)
      3      3  C        2   1.264940(     2)      1  117.463(     4)
      4      4  O        3   1.184194(     3)      2  170.470(     5)      1  180.878(     6)      0
 ---------------------------------------------------------------------------------------------------
                         Z-Matrix orientation:                         
 ---------------------------------------------------------------------
 Center     Atomic      Atomic             Coordinates (Angstroms)
 Number     Number       Type             X           Y           Z
 ---------------------------------------------------------------------
      1          1           0        0.000000    0.000000    0.000000
      2          7           0        0.000000    0.000000    1.036897
      3          6           0        1.122396    0.000000    1.620250
      4          8           0        2.068235   -0.003003    2.332778
 ---------------------------------------------------------------------
                    Distance matrix (angstroms):
                    1          2          3          4
     1  H    0.000000
     2  N    1.036897   0.000000
     3  C    1.971036   1.264940   0.000000
     4  O    3.117604   2.440678   1.184194   0.000000
 Stoichiometry    CHNO
 Framework group  C1[X(CHNO)]
 Deg. of freedom     6
 Full point group                 C1      NOp   1
 RotChk:  IX=2 Diff= 4.61D-02
 Largest Abelian subgroup         C1      NOp   1
 Largest concise Abelian subgroup C1      NOp   1
                         Standard orientation:                         
 ---------------------------------------------------------------------
 Center     Atomic      Atomic             Coordinates (Angstroms)
 Number     Number       Type             X           Y           Z
 ---------------------------------------------------------------------
      1          1           0        1.802896    0.702878    0.000807
      2          7           0        1.200032   -0.140753    0.000341
      3          6           0       -0.052327    0.037199   -0.001163
      4          8           0       -1.236145    0.007400    0.000473
 ---------------------------------------------------------------------
[...]
                     4                      5                      6
                     A                      A                      A
 Frequencies --  1394.0563              2509.9895              3958.3450
 Red. masses --     6.6083                 9.7463                 1.0791
 Frc consts  --     7.5666                36.1772                 9.9620
 IR Inten    --     1.0059               391.0860                62.7486
 Raman Activ --    14.7655                 0.3286                76.3706
 Depolar (P) --     0.2508                 0.4018                 0.3206
 Depolar (U) --     0.4010                 0.5733                 0.4855
  Atom  AN      X      Y      Z        X      Y      Z        X      Y      Z
     1   1     0.76  -0.14   0.00    -0.50   0.08   0.00     0.58   0.81   0.00
     2   7     0.47  -0.01   0.00    -0.23   0.00   0.00    -0.05  -0.05   0.00
     3   6    -0.04   0.03   0.00     0.76   0.02   0.00     0.01   0.00   0.00
     4   8    -0.43   0.00   0.00    -0.33  -0.02   0.00     0.00   0.00   0.00

 -------------------
 - Thermochemistry -
 -------------------
 Temperature   298.150 Kelvin.  Pressure   1.00000 Atm.
 Atom     1 has atomic number  1 and mass   1.00783
 Atom     2 has atomic number  7 and mass  14.00307
 Atom     3 has atomic number  6 and mass  12.00000
 Atom     4 has atomic number  8 and mass  15.99491
 Molecular mass:    43.00581 amu.
 Principal axes and moments of inertia in atomic units:
                           1         2         3
     Eigenvalues --     2.82154 167.41457 170.23611
           X            0.99961   0.02792   0.00001
           Y           -0.02792   0.99961   0.00015
           Z           -0.00001  -0.00015   1.00000
 This molecule is an asymmetric top.
 Rotational symmetry number  1.
 Rotational temperatures (Kelvin)     30.69735     0.51736     0.50879
 Rotational constants (GHZ):         639.62985    10.78007    10.60140
 Zero-point vibrational energy      59938.2 (Joules/Mol)
                                   14.32558 (Kcal/Mol)
 Warning -- explicit consideration of   2 degrees of freedom as
           vibrations may cause significant error
 Vibrational temperatures:    769.65   834.08  1501.87  2005.73  3611.31
          (Kelvin)           5695.17
 
 Zero-point correction=                           0.022829 (Hartree/Particle)
 Thermal correction to Energy=                    0.026072
 Thermal correction to Enthalpy=                  0.027016
 Thermal correction to Gibbs Free Energy=        -0.000251
 Sum of electronic and zero-point Energies=           -165.480089
 Sum of electronic and thermal Energies=              -165.476847
 Sum of electronic and thermal Enthalpies=            -165.475903
 Sum of electronic and thermal Free Energies=         -165.503169
 
                     E (Thermal)             CV                S
                      KCal/Mol        Cal/Mol-Kelvin    Cal/Mol-Kelvin
 Total                   16.360              8.651             57.387
 Electronic               0.000              0.000              0.000
 Translational            0.889              2.981             37.203
 Rotational               0.889              2.981             19.026
 Vibrational             14.583              2.689              1.159
 Vibration     1          0.890              1.173              0.576
 Vibration     2          0.936              1.075              0.486
                       Q            Log10(Q)             Ln(Q)
 Total Bot       0.130432D+01          0.115383          0.265678
 Total V=0       0.413140D+11         10.616097         24.444467
 Vib (Bot)       0.366543D-10        -10.435875        -24.029491
 Vib (Bot)    1  0.297592D+00         -0.526379         -1.212032
 Vib (Bot)    2  0.262933D+00         -0.580155         -1.335855
 Vib (V=0)       0.116102D+01          0.064839          0.149297
 Vib (V=0)    1  0.108186D+01          0.034171          0.078682
 Vib (V=0)    2  0.106492D+01          0.027317          0.062899
 Electronic      0.100000D+01          0.000000          0.000000
 Translational   0.110853D+08          7.044746         16.221127
 Rotational      0.321005D+04          3.506512          8.074042
 
                                                                  T1
                                                             IR Spectrum
 
     3                                              2                                   1          1                                 
     9                                              5                                   3          0              55                 
     5                                              1                                   9          4              83                 
     8                                              0                                   4          4              05                 
 
     X                                              X                                   X          X              XX                 
     X                                              X                                              X               X                 
     X                                              X                                              X               X                 
                                                    X                                              X                                 
                                                    X                                              X                                 
                                                    X                                              X                                 
                                                    X                                              X                                 
                                                    X                                              X                                 
                                                    X                                              X                                 
                                                    X                                              X                                 
                                                    X                                              X                                 
                                                    X                                              X                                 
                                                    X                                              X                                 
                                                    X                                                                                
                                                    X                                                                                
                                                    X                                                                                
                                                    X                                                                                
                                                    X                                                                                
                                                    X                                                                                
                                                    X                                                                                
 
 
                                                                  T1
                                                            Raman Spectrum
 
     3                                              2                                   1          1                                 
     9                                              5                                   3          0              55                 
     5                                              1                                   9          4              83                 
     8                                              0                                   4          4              05                 
 
     X                                              X                                   X          X              XX                 
     X                                                                                  X          X                                 
     X                                                                                  X                                            
     X                                                                                  X                                            
     X                                                                                                                               
     X                                                                                                                               
     X                                                                                                                               
     X                                                                                                                               
     X                                                                                                                               
     X                                                                                                                               
     X                                                                                                                               
     X                                                                                                                               
     X                                                                                                                               
     X                                                                                                                               
     X                                                                                                                               
     X                                                                                                                               
     X                                                                                                                               
     X                                                                                                                               
     X                                                                                                                               
     X                                                                                                                               
 
 ***** Axes restored to original set *****
 -------------------------------------------------------------------
 Center     Atomic                   Forces (Hartrees/Bohr)
 Number     Number              X              Y              Z
 -------------------------------------------------------------------
      1        1          -0.000003724    0.000007065    0.000158741
      2        7          -0.000096100    0.000019929   -0.000183598
      3        6          -0.000003327   -0.000058432   -0.000075588
      4        8           0.000103152    0.000031438    0.000100444
 -------------------------------------------------------------------
 Cartesian Forces:  Max     0.000183598 RMS     0.000091040
 -----------------------------------------------------------------------------------------------
                       Internal Coordinate Forces (Hartree/Bohr or radian)
  Cent   Atom   N1       Length/X         N2         Alpha/Y        N3         Beta/Z          J
 -----------------------------------------------------------------------------------------------
      1  H 
      2  N        1  -0.000159(     1)
      3  C        2   0.000101(     2)      1   0.000007(     4)
      4  O        3   0.000142(     3)      2  -0.000052(     5)      1  -0.000013(     6)     0
 -----------------------------------------------------------------------------------------------
 Internal  Forces:  Max     0.000158741 RMS     0.000098749
 Force constants in Cartesian coordinates: 
                1             2             3             4             5 
      1  0.393469D-01
      2  0.563653D-05  0.157407D-02
      3  0.284802D-01 -0.299608D-05  0.556036D+00
      4  0.194066D-01 -0.578730D-05 -0.567713D-01  0.651091D+00
      5 -0.103108D-04  0.413508D-02  0.000000D+00 -0.372129D-04  0.119198D-01
      6  0.412741D-01  0.864592D-05 -0.540806D+00  0.379748D+00 -0.358824D-04
      7 -0.634954D-01 -0.691523D-05  0.180081D-01 -0.611960D+00  0.218171D-04
      8  0.901721D-05 -0.123730D-01  0.121632D-04  0.484234D-04 -0.348412D-01
      9 -0.810651D-01 -0.112369D-04 -0.249242D-01 -0.279047D+00  0.230635D-04
     10  0.474192D-02  0.706600D-05  0.102830D-01 -0.585379D-01  0.257066D-04
     11 -0.434293D-05  0.666386D-02 -0.929659D-05 -0.542322D-05  0.187863D-01
     12  0.113108D-01  0.558701D-05  0.969457D-02 -0.439293D-01  0.126895D-04
                6             7             8             9            10 
      6  0.812801D+00
      7 -0.370237D+00  0.145187D+01
      8  0.296265D-04 -0.449747D-03  0.102305D+00
      9 -0.284410D+00  0.875700D+00 -0.324019D-03  0.750773D+00
     10 -0.507847D-01 -0.776410D+00  0.392306D-03 -0.515588D+00  0.830206D+00
     11 -0.238996D-05  0.434845D-03 -0.550912D-01  0.312193D-03 -0.425079D-03
     12  0.124157D-01 -0.523471D+00  0.282229D-03 -0.441439D+00  0.556089D+00
               11            12 
     11  0.296410D-01
     12 -0.300506D-03  0.419329D+00
 Force constants in internal coordinates: 
                1             2             3             4             5 
      1  0.556036D+00
      2 -0.193588D-01  0.950119D+00
      3 -0.139810D-01  0.656330D-01  0.121759D+01
      4  0.557274D-01  0.161430D+00 -0.202778D-01  0.150357D+00
      5  0.461149D-02  0.467390D-01  0.260782D-02  0.286920D-01  0.159895D+00
      6  0.109343D-05  0.394705D-05 -0.103642D-04  0.138463D-04 -0.672908D-04
                6 
      6  0.471921D-02
 Leave Link  716 at Sun Nov 14 20:02:10 2021, MaxMem=    8388608 cpu:       0.0
 (Enter C:\G09W\l103.exe)

 GradGradGradGradGradGradGradGradGradGradGradGradGradGradGradGradGradGrad
 Berny optimization.
 Search for a local minimum.
 Step number   1 out of a maximum of    2
 All quantities printed in internal units (Hartrees-Bohrs-Radians)
 Second derivative matrix not updated -- analytic derivatives used.
 The second derivative matrix:
                          B1        B2        B3        A1        A2
           B1           0.55604
           B2          -0.01936   0.95012
           B3          -0.01398   0.06563   1.21759
           A1           0.05573   0.16143  -0.02028   0.15036
           A2           0.00461   0.04674   0.00261   0.02869   0.15989
           D1           0.00000   0.00000  -0.00001   0.00001  -0.00007
                          D1
           D1           0.00472
 ITU=  0
     Eigenvalues ---    0.00472   0.10407   0.16297   0.56325   0.96997
     Eigenvalues ---    1.23373
 Angle between quadratic step and forces=  79.06 degrees.
 Linear search not attempted -- first point.
 Variable       Old X    -DE/DX   Delta X   Delta X   Delta X     New X
                                 (Linear)    (Quad)   (Total)
    B1        1.95683  -0.00016   0.00000  -0.00029  -0.00029   1.95654
    B2        2.35303   0.00010   0.00000   0.00009   0.00009   2.35311
    B3        2.23506   0.00014   0.00000   0.00011   0.00011   2.23518
    A1        2.00111   0.00001   0.00000   0.00015   0.00015   2.00126
    A2        2.96247  -0.00005   0.00000  -0.00037  -0.00037   2.96210
    D1        3.14426  -0.00001   0.00000  -0.00267  -0.00267   3.14159
         Item               Value     Threshold  Converged?
 Maximum Force            0.000159     0.000450     YES
 RMS     Force            0.000099     0.000300     YES
 Maximum Displacement     0.002669     0.001800     NO 
 RMS     Displacement     0.001110     0.001200     YES
 Predicted change in Energy=-6.239595D-08
 GradGradGradGradGradGradGradGradGradGradGradGradGradGradGradGradGradGrad

 Leave Link  103 at Sun Nov 14 20:02:10 2021, MaxMem=    8388608 cpu:       0.0
 (Enter C:\G09W\l9999.exe)
 1|1|UNPC-DESKTOP-RNC6JTU|Freq|RHF|STO-3G|C1H1N1O1|BNULK|14-Nov-2021|1|
 |#P Geom=AllCheck Guess=TCheck SCRF=Check GenChk RHF/STO-3G Freq||T1||
 0,1|H|N,1,B1|C,2,B2,1,A1|O,3,B3,2,A2,1,D1,0||B1=1.0355122|B2=1.2451680
 4|B3=1.18274467|A1=114.65520914|A2=169.73727237|D1=180.15261329||Versi
 on=IA32W-G09RevC.01|State=1-A|HF=-165.5029185|RMSD=1.405e-009|RMSF=9.1
 04e-005|ZeroPoint=0.0228293|Thermal=0.0260716|Dipole=0.1555159,0.00027
 08,-0.6673645|DipoleDeriv=0.3779422,-0.000061,0.1821247,-0.0000145,0.3
 203524,-0.0000001,0.099939,0.0000183,0.1460405,-1.1518329,0.0003536,-0
 .7010983,0.0000591,-0.6118862,0.0000115,-0.3100246,0.0000533,-0.514005
 7,1.5543562,-0.0003201,0.8317938,-0.0004006,0.5468593,-0.0002056,0.624
 9572,-0.0000829,0.8473495,-0.7804655,0.0000275,-0.3128202,0.000356,-0.
 2553254,0.0001943,-0.4148717,0.0000113,-0.4793842|Polar=15.4192993,-0.
 0023561,2.5363846,8.2186089,-0.0018838,10.8572217|PolarDeriv=-2.175665
 3,0.0005094,0.1693008,-1.7296971,0.000075,1.3283617,-0.0002878,-0.6806
 95,0.0001768,0.000191,-1.9267254,0.0003633,-1.3725287,0.0000577,-0.184
 3819,-3.2146117,0.0004208,-7.7887238,-5.4881967,-0.0020387,-1.5759543,
 -0.2710127,-0.000754,-2.92748,0.0001002,-3.4397797,-0.0007104,-0.00040
 16,-0.3942938,-0.0007593,0.5147321,-0.000082,-0.1928269,-0.1895554,-0.
 0008334,4.3662287,-0.0506432,0.0038437,0.6798074,-1.1147998,0.001052,0
 .1035765,0.0022999,1.8990248,0.0041481,0.0012314,0.5448982,0.0017235,-
 0.9854386,0.0003653,-0.2626579,-0.2061827,0.0021566,-2.0349311,7.71450
 52,-0.0023144,0.7268461,3.1155097,-0.000373,1.4955418,-0.0021123,2.221
 4499,-0.0036145,-0.0010208,1.776121,-0.0013276,1.8432351,-0.000341,0.6
 398666,3.6103497,-0.0017439,5.4574262|HyperPolar=12.1845333,0.0077753,
 3.6120973,0.0033037,0.2957183,0.0038781,1.3276408,-5.6124403,0.0043572
 ,-15.4407133|PG=C01 [X(C1H1N1O1)]|NImag=0||0.03934692,0.00000564,0.001
 57407,0.02848023,-0.00000300,0.55603579,0.01940660,-0.00000579,-0.0567
 7133,0.65109141,-0.00001031,0.00413508,0.00000013,-0.00003721,0.011919
 76,0.04127413,0.00000865,-0.54080611,0.37974775,-0.00003588,0.81280057
 ,-0.06349543,-0.00000692,0.01800807,-0.61196013,0.00002182,-0.37023716
 ,1.45186517,0.00000902,-0.01237301,0.00001216,0.00004842,-0.03484116,0
 .00002963,-0.00044975,0.10230536,-0.08106510,-0.00001124,-0.02492424,-
 0.27904709,0.00002306,-0.28441016,0.87570000,-0.00032402,0.75077337,0.
 00474192,0.00000707,0.01028304,-0.05853788,0.00002571,-0.05078472,-0.7
 7640961,0.00039231,-0.51558781,0.83020557,-0.00000434,0.00666386,-0.00
 000930,-0.00000542,0.01878632,-0.00000239,0.00043484,-0.05509119,0.000
 31219,-0.00042508,0.02964100,0.01131075,0.00000559,0.00969457,-0.04392
 933,0.00001269,0.01241570,-0.52347091,0.00028223,-0.44143897,0.5560895
 0,-0.00030051,0.41932870||0.00000372,-0.00000707,-0.00015874,0.0000961
 0,-0.00001993,0.00018360,0.00000333,0.00005843,0.00007559,-0.00010315,
 -0.00003144,-0.00010044|||@


 THOSE WHO ASPIRE NOT TO GUESS AND DIVINE,
 BUT TO DISCOVER AND KNOW, WHO PROPOSE NOT TO DEVISE 
 MIMIC AND FABULOUS WORLDS OF THEIR OWN, BUT TO 
 EXAMINE AND DISSECT THE NATURE OF THIS VERY WORLD 
 ITSELF, MUST GO TO THE FACTS THEMSELVES FOR EVERYTHING.

                               -- FRANCIS BACON, 1620
 Job cpu time:  0 days  0 hours  0 minutes  5.0 seconds.
 File lengths (MBytes):  RWF=      5 Int=      0 D2E=      0 Chk=      1 Scr=      1
 Normal termination of Gaussian 09 at Sun Nov 14 20:02:10 2021.
