 Entering Gaussian System, Link 0=g09
 Input=2.gjf
 Output=D:\ChemKun\test\LineApproximate\2.out
 Initial command:
 C:\G09W\l1.exe .\gxx.inp D:\ChemKun\test\LineApproximate\2.out /scrdir=.\
 Entering Link 1 = C:\G09W\l1.exe PID=     17156.
  
 Copyright (c) 1988,1990,1992,1993,1995,1998,2003,2009,2011,
            Gaussian, Inc.  All Rights Reserved.
  
 This is part of the Gaussian(R) 09 program.  It is based on
 the Gaussian(R) 03 system (copyright 2003, Gaussian, Inc.),
 the Gaussian(R) 98 system (copyright 1998, Gaussian, Inc.),
 the Gaussian(R) 94 system (copyright 1995, Gaussian, Inc.),
 the Gaussian 92(TM) system (copyright 1992, Gaussian, Inc.),
 the Gaussian 90(TM) system (copyright 1990, Gaussian, Inc.),
 the Gaussian 88(TM) system (copyright 1988, Gaussian, Inc.),
 the Gaussian 86(TM) system (copyright 1986, Carnegie Mellon
 University), and the Gaussian 82(TM) system (copyright 1983,
 Carnegie Mellon University). Gaussian is a federally registered
 trademark of Gaussian, Inc.
  
 This software contains proprietary and confidential information,
 including trade secrets, belonging to Gaussian, Inc.
  
 This software is provided under written license and may be
 used, copied, transmitted, or stored only in accord with that
 written license.
  
 The following legend is applicable only to US Government
 contracts under FAR:
  
                    RESTRICTED RIGHTS LEGEND
  
 Use, reproduction and disclosure by the US Government is
 subject to restrictions as set forth in subparagraphs (a)
 and (c) of the Commercial Computer Software - Restricted
 Rights clause in FAR 52.227-19.
  
 Gaussian, Inc.
 340 Quinnipiac St., Bldg. 40, Wallingford CT 06492
  
  
 ---------------------------------------------------------------
 Warning -- This program may not be used in any manner that
 competes with the business of Gaussian, Inc. or will provide
 assistance to any competitor of Gaussian, Inc.  The licensee
 of this program is prohibited from giving any competitor of
 Gaussian, Inc. access to this program.  By using this program,
 the user acknowledges that Gaussian, Inc. is engaged in the
 business of creating and licensing software in the field of
 computational chemistry and represents and warrants to the
 licensee that it is not a competitor of Gaussian, Inc. and that
 it will not use this program in any manner prohibited above.
 ---------------------------------------------------------------
  

 Cite this work as:
 Gaussian 09, Revision C.01,
 M. J. Frisch, G. W. Trucks, H. B. Schlegel, G. E. Scuseria, 
 M. A. Robb, J. R. Cheeseman, G. Scalmani, V. Barone, B. Mennucci, 
 G. A. Petersson, H. Nakatsuji, M. Caricato, X. Li, H. P. Hratchian, 
 A. F. Izmaylov, J. Bloino, G. Zheng, J. L. Sonnenberg, M. Hada, 
 M. Ehara, K. Toyota, R. Fukuda, J. Hasegawa, M. Ishida, T. Nakajima, 
 Y. Honda, O. Kitao, H. Nakai, T. Vreven, J. A. Montgomery, Jr., 
 J. E. Peralta, F. Ogliaro, M. Bearpark, J. J. Heyd, E. Brothers, 
 K. N. Kudin, V. N. Staroverov, T. Keith, R. Kobayashi, J. Normand, 
 K. Raghavachari, A. Rendell, J. C. Burant, S. S. Iyengar, J. Tomasi, 
 M. Cossi, N. Rega, J. M. Millam, M. Klene, J. E. Knox, J. B. Cross, 
 V. Bakken, C. Adamo, J. Jaramillo, R. Gomperts, R. E. Stratmann, 
 O. Yazyev, A. J. Austin, R. Cammi, C. Pomelli, J. W. Ochterski, 
 R. L. Martin, K. Morokuma, V. G. Zakrzewski, G. A. Voth, 
 P. Salvador, J. J. Dannenberg, S. Dapprich, A. D. Daniels, 
 O. Farkas, J. B. Foresman, J. V. Ortiz, J. Cioslowski, 
 and D. J. Fox, Gaussian, Inc., Wallingford CT, 2010.
 
 ******************************************
 Gaussian 09:  IA32W-G09RevC.01 23-Sep-2011
                14-Nov-2021 
 ******************************************
 %mem=64mb
 %chk=LiuKun2.chk
 -----------------------------------------------
 #p hf/sto-3g scf=maxcycle=999 opt=z-matrix freq
 -----------------------------------------------
 1/10=7,18=40,38=1/1,3;
 2/12=2,17=6,18=5,29=3,40=1/2;
 3/6=3,11=9,16=1,25=1,30=1,71=1/1,2,3;
 4//1;
 5/5=2,7=999,38=5/2;
 6/7=2,8=2,9=2,10=2,28=1/1;
 7/29=1/1,2,3,16;
 1/10=7,18=40/3(2);
 2/29=3/2;
 99//99;
 2/29=3/2;
 3/6=3,11=9,16=1,25=1,30=1,71=1/1,2,3;
 4/5=5,16=3/1;
 5/5=2,7=999,38=5/2;
 7//1,2,3,16;
 1/18=40/3(-5);
 2/29=3/2;
 6/7=2,8=2,9=2,10=2,19=2,28=1/1;
 99/9=1/99;
 Leave Link    1 at Sun Nov 14 20:00:25 2021, MaxMem=    8388608 cpu:       0.0
 (Enter C:\G09W\l101.exe)
 --
 T1
 --
 Charge =  0 Multiplicity = 3
 Symbolic Z-Matrix:
 H
 N                    1    B1
 C                    2    B2       1    A1
 O                    3    B3       2    A2       1    D1       0
       Variables:
  B1                    1.05084                  
  B2                    1.36265                  
  B3                    1.23459                  
  A1                  107.69645                  
  A2                  134.13593                  
  D1                  182.                       
 
 NAtoms=      4 NQM=        0 NQMF=       0 NMMI=      4 NMMIF=      0
                NMic=       0 NMicF=      0.
                    Isotopes and Nuclear Properties:
 (Nuclear quadrupole moments (NQMom) in fm**2, nuclear magnetic moments (NMagM)
  in nuclear magnetons)

  Atom         1           2           3           4
 IAtWgt=           1          14          12          16
 AtmWgt=   1.0078250  14.0030740  12.0000000  15.9949146
 NucSpn=           1           2           0           0
 AtZEff=   0.0000000   0.0000000   0.0000000   0.0000000
 NQMom=    0.0000000   2.0440000   0.0000000   0.0000000
 NMagM=    2.7928460   0.4037610   0.0000000   0.0000000
 Leave Link  101 at Sun Nov 14 20:00:25 2021, MaxMem=    8388608 cpu:       0.0
 (Enter C:\G09W\l103.exe)

 GradGradGradGradGradGradGradGradGradGradGradGradGradGradGradGradGradGrad
 Berny optimization.
 Initialization pass.
                       ----------------------------
                       !    Initial Parameters    !
                       ! (Angstroms and Degrees)  !
 ----------------------                            ----------------------
 !      Name          Value   Derivative information (Atomic Units)     !
 ------------------------------------------------------------------------
 !       B1          1.0508   estimate D2E/DX2                          !
 !       B2          1.3627   estimate D2E/DX2                          !
 !       B3          1.2346   estimate D2E/DX2                          !
 !       A1        107.6965   estimate D2E/DX2                          !
 !       A2        134.1359   estimate D2E/DX2                          !
 !       D1        182.0      estimate D2E/DX2                          !
 ------------------------------------------------------------------------
 Trust Radius=3.00D-01 FncErr=1.00D-07 GrdErr=1.00D-07
 Number of steps in this run=     20 maximum allowed number of steps=    100.
 GradGradGradGradGradGradGradGradGradGradGradGradGradGradGradGradGradGrad

 Leave Link  103 at Sun Nov 14 20:00:25 2021, MaxMem=    8388608 cpu:       0.0
 (Enter C:\G09W\l202.exe)
 ---------------------------------------------------------------------------------------------------
                            Z-MATRIX (ANGSTROMS AND DEGREES)
   CD    Cent   Atom    N1       Length/X        N2       Alpha/Y        N3        Beta/Z          J
 ---------------------------------------------------------------------------------------------------
      1      1  H 
      2      2  N        1   1.050837(     1)
      3      3  C        2   1.362651(     2)      1  107.696(     4)
      4      4  O        3   1.234589(     3)      2  134.136(     5)      1  182.000(     6)      0
 ---------------------------------------------------------------------------------------------------
                         Z-Matrix orientation:                         
 ---------------------------------------------------------------------
 Center     Atomic      Atomic             Coordinates (Angstroms)
 Number     Number       Type             X           Y           Z
 ---------------------------------------------------------------------
      1          1           0        0.000000    0.000000    0.000000
      2          7           0        0.000000    0.000000    1.050837
      3          6           0        1.298171    0.000000    1.465048
      4          8           0        1.848038   -0.030923    2.569991
 ---------------------------------------------------------------------
                    Distance matrix (angstroms):
                    1          2          3          4
     1  H    0.000000
     2  N    1.050837   0.000000
     3  C    1.957450   1.362651   0.000000
     4  O    3.165605   2.392495   1.234589   0.000000
 Stoichiometry    CHNO(3)
 Framework group  C1[X(CHNO)]
 Deg. of freedom     6
 Full point group                 C1      NOp   1
 Largest Abelian subgroup         C1      NOp   1
 Largest concise Abelian subgroup C1      NOp   1
                         Standard orientation:                         
 ---------------------------------------------------------------------
 Center     Atomic      Atomic             Coordinates (Angstroms)
 Number     Number       Type             X           Y           Z
 ---------------------------------------------------------------------
      1          1           0        1.883549    0.537087    0.021445
      2          7           0        1.173860   -0.237554   -0.001598
      3          6           0       -0.063143    0.333955   -0.005747
      4          8           0       -1.215214   -0.109742    0.003028
 ---------------------------------------------------------------------
 Rotational constants (GHZ):    195.7181738     10.8721151     10.3003464
 Leave Link  202 at Sun Nov 14 20:00:25 2021, MaxMem=    8388608 cpu:       0.0
 (Enter C:\G09W\l301.exe)
 Standard basis: STO-3G (5D, 7F)
 Ernie: Thresh=  0.10000D-02 Tol=  0.10000D-05 Strict=F.
 There are    16 symmetry adapted basis functions of A   symmetry.
 Integral buffers will be    262144 words long.
 Raffenetti 2 integral format.
 Two-electron integral symmetry is turned on.
    16 basis functions,    48 primitive gaussians,    16 cartesian basis functions
    12 alpha electrons       10 beta electrons
       nuclear repulsion energy        55.7551009953 Hartrees.
 IExCor=    0 DFT=F Ex=HF Corr=None ExCW=0 ScaHFX=  1.000000
 ScaDFX=  1.000000  1.000000  1.000000  1.000000 ScalE2=  1.000000  1.000000
 IRadAn=      0 IRanWt=     -1 IRanGd=            0 ICorTp=0
 NAtoms=    4 NActive=    4 NUniq=    4 SFac= 1.00D+00 NAtFMM=   60 NAOKFM=F Big=F
 Leave Link  301 at Sun Nov 14 20:00:25 2021, MaxMem=    8388608 cpu:       0.0
 (Enter C:\G09W\l302.exe)
 NPDir=0 NMtPBC=     1 NCelOv=     1 NCel=       1 NClECP=     1 NCelD=      1
         NCelK=      1 NCelE2=     1 NClLst=     1 CellRange=     0.0.
 One-electron integrals computed using PRISM.
 NBasis=    16 RedAO= T  NBF=    16
 NBsUse=    16 1.00D-06 NBFU=    16
 Leave Link  302 at Sun Nov 14 20:00:26 2021, MaxMem=    8388608 cpu:       0.0
 (Enter C:\G09W\l303.exe)
 DipDrv:  MaxL=1.
 Leave Link  303 at Sun Nov 14 20:00:26 2021, MaxMem=    8388608 cpu:       0.0
 (Enter C:\G09W\l401.exe)
 Harris functional with IExCor=  205 diagonalized for initial guess.
 ExpMin= 1.69D-01 ExpMax= 1.31D+02 ExpMxC= 1.31D+02 IAcc=1 IRadAn=         1 AccDes= 0.00D+00
 HarFok:  IExCor=  205 AccDes= 0.00D+00 IRadAn=         1 IDoV= 1
 ScaDFX=  1.000000  1.000000  1.000000  1.000000
 FoFCou: FMM=F IPFlag=           0 FMFlag=      100000 FMFlg1=           0
         NFxFlg=           0 DoJE=T BraDBF=F KetDBF=T FulRan=T
         Omega=  0.000000  0.000000  1.000000  0.000000  0.000000 ICntrl=     500 IOpCl=  0
         NMat0=    1 NMatS0=    1 NMatT0=    0 NMatD0=    1 NMtDS0=    0 NMtDT0=    0
         I1Cent=           4 NGrid=           0.
 Petite list used in FoFCou.
 Harris En= -165.371525694514    
 Initial guess orbital symmetries:
 Alpha Orbitals:
       Occupied  (A) (A) (A) (A) (A) (A) (A) (A) (A) (A) (A) (A)
       Virtual   (A) (A) (A) (A)
 Beta  Orbitals:
       Occupied  (A) (A) (A) (A) (A) (A) (A) (A) (A) (A)
       Virtual   (A) (A) (A) (A) (A) (A)
 The electronic state of the initial guess is 3-A.
 Initial guess <Sx>= 0.0000 <Sy>= 0.0000 <Sz>= 1.0000 <S**2>= 2.0000 S= 1.0000
 Leave Link  401 at Sun Nov 14 20:00:26 2021, MaxMem=    8388608 cpu:       0.0
 (Enter C:\G09W\l502.exe)
 UHF open shell SCF:
 Requested convergence on RMS density matrix=1.00D-08 within 999 cycles.
 Requested convergence on MAX density matrix=1.00D-06.
 Requested convergence on             energy=1.00D-06.
 No special actions if energy rises.
 Using DIIS extrapolation, IDIIS=  1040.
 Integral symmetry usage will be decided dynamically.
 Keep R1 and R2 ints in memory in canonical form, NReq=1824341.
 IEnd=     1005688 IEndB=     1005688 NGot=     8388608 MDV=     8364722
 LenX=     8364722 LenY=     8363840
 Symmetry not used in FoFDir.
 MinBra= 0 MaxBra= 1 Meth= 1.
 IRaf=       0 NMat=   1 IRICut=       1 DoRegI=T DoRafI=F ISym2E= 0 JSym2E=0.

 Cycle   1  Pass 1  IDiag  1:
 E= -165.402330134588    
 DIIS: error= 3.18D-02 at cycle   1 NSaved=   1.
 NSaved= 1 IEnMin= 1 EnMin= -165.402330134588     IErMin= 1 ErrMin= 3.18D-02
 ErrMax= 3.18D-02 EMaxC= 1.00D-01 BMatC= 9.37D-02 BMatP= 9.37D-02
 IDIUse=3 WtCom= 6.82D-01 WtEn= 3.18D-01
 Coeff-Com:  0.100D+01
 Coeff-En:   0.100D+01
 Coeff:      0.100D+01
 Gap=     0.531 Goal=   None    Shift=    0.000
 Gap=     0.492 Goal=   None    Shift=    0.000
 GapD=    0.492 DampG=2.000 DampE=0.500 DampFc=1.0000 IDamp=-1.
 RMSDP=1.16D-02 MaxDP=7.67D-02              OVMax= 0.00D+00

 Cycle   2  Pass 1  IDiag  1:
 E= -165.436119308333     Delta-E=       -0.033789173744 Rises=F Damp=F
 DIIS: error= 2.30D-02 at cycle   2 NSaved=   2.
 NSaved= 2 IEnMin= 2 EnMin= -165.436119308333     IErMin= 2 ErrMin= 2.30D-02
 ErrMax= 2.30D-02 EMaxC= 1.00D-01 BMatC= 1.17D-02 BMatP= 9.37D-02
 IDIUse=3 WtCom= 7.70D-01 WtEn= 2.30D-01
 Coeff-Com: -0.149D+00 0.115D+01
 Coeff-En:   0.000D+00 0.100D+01
 Coeff:     -0.115D+00 0.111D+01
 Gap=     0.557 Goal=   None    Shift=    0.000
 Gap=     0.530 Goal=   None    Shift=    0.000
 RMSDP=6.43D-03 MaxDP=6.10D-02 DE=-3.38D-02 OVMax= 0.00D+00

 Cycle   3  Pass 1  IDiag  1:
 E= -165.446764908633     Delta-E=       -0.010645600300 Rises=F Damp=F
 DIIS: error= 1.46D-02 at cycle   3 NSaved=   3.
 NSaved= 3 IEnMin= 3 EnMin= -165.446764908633     IErMin= 3 ErrMin= 1.46D-02
 ErrMax= 1.46D-02 EMaxC= 1.00D-01 BMatC= 3.92D-03 BMatP= 1.17D-02
 IDIUse=3 WtCom= 8.54D-01 WtEn= 1.46D-01
 Coeff-Com:  0.313D-02-0.651D+00 0.165D+01
 Coeff-En:   0.000D+00 0.000D+00 0.100D+01
 Coeff:      0.267D-02-0.556D+00 0.155D+01
 Gap=     0.574 Goal=   None    Shift=    0.000
 Gap=     0.551 Goal=   None    Shift=    0.000
 RMSDP=5.55D-03 MaxDP=6.47D-02 DE=-1.06D-02 OVMax= 0.00D+00

 Cycle   4  Pass 1  IDiag  1:
 E= -165.452065955662     Delta-E=       -0.005301047028 Rises=F Damp=F
 DIIS: error= 7.19D-03 at cycle   4 NSaved=   4.
 NSaved= 4 IEnMin= 4 EnMin= -165.452065955662     IErMin= 4 ErrMin= 7.19D-03
 ErrMax= 7.19D-03 EMaxC= 1.00D-01 BMatC= 1.39D-03 BMatP= 3.92D-03
 IDIUse=3 WtCom= 9.28D-01 WtEn= 7.19D-02
 Coeff-Com:  0.269D-01-0.324D+00 0.187D+00 0.111D+01
 Coeff-En:   0.000D+00 0.000D+00 0.000D+00 0.100D+01
 Coeff:      0.250D-01-0.300D+00 0.174D+00 0.110D+01
 Gap=     0.583 Goal=   None    Shift=    0.000
 Gap=     0.569 Goal=   None    Shift=    0.000
 RMSDP=3.28D-03 MaxDP=3.74D-02 DE=-5.30D-03 OVMax= 0.00D+00

 Cycle   5  Pass 1  IDiag  1:
 E= -165.454080761098     Delta-E=       -0.002014805436 Rises=F Damp=F
 DIIS: error= 5.40D-03 at cycle   5 NSaved=   5.
 NSaved= 5 IEnMin= 5 EnMin= -165.454080761098     IErMin= 5 ErrMin= 5.40D-03
 ErrMax= 5.40D-03 EMaxC= 1.00D-01 BMatC= 6.61D-04 BMatP= 1.39D-03
 IDIUse=3 WtCom= 9.46D-01 WtEn= 5.40D-02
 Coeff-Com: -0.127D-01 0.252D+00-0.339D+00-0.845D+00 0.194D+01
 Coeff-En:   0.000D+00 0.000D+00 0.000D+00 0.000D+00 0.100D+01
 Coeff:     -0.120D-01 0.239D+00-0.321D+00-0.799D+00 0.189D+01
 Gap=     0.587 Goal=   None    Shift=    0.000
 Gap=     0.579 Goal=   None    Shift=    0.000
 RMSDP=3.56D-03 MaxDP=4.11D-02 DE=-2.01D-03 OVMax= 0.00D+00

 Cycle   6  Pass 1  IDiag  1:
 E= -165.455699063666     Delta-E=       -0.001618302568 Rises=F Damp=F
 DIIS: error= 3.47D-03 at cycle   6 NSaved=   6.
 NSaved= 6 IEnMin= 6 EnMin= -165.455699063666     IErMin= 6 ErrMin= 3.47D-03
 ErrMax= 3.47D-03 EMaxC= 1.00D-01 BMatC= 3.04D-04 BMatP= 6.61D-04
 IDIUse=3 WtCom= 9.65D-01 WtEn= 3.47D-02
 Coeff-Com: -0.230D-01 0.192D+00 0.269D-01-0.961D+00-0.314D-01 0.180D+01
 Coeff-En:   0.000D+00 0.000D+00 0.000D+00 0.000D+00 0.000D+00 0.100D+01
 Coeff:     -0.222D-01 0.185D+00 0.260D-01-0.928D+00-0.303D-01 0.177D+01
 Gap=     0.593 Goal=   None    Shift=    0.000
 Gap=     0.590 Goal=   None    Shift=    0.000
 RMSDP=4.06D-03 MaxDP=4.09D-02 DE=-1.62D-03 OVMax= 0.00D+00

 Cycle   7  Pass 1  IDiag  1:
 E= -165.456553708666     Delta-E=       -0.000854645000 Rises=F Damp=F
 DIIS: error= 9.13D-04 at cycle   7 NSaved=   7.
 NSaved= 7 IEnMin= 7 EnMin= -165.456553708666     IErMin= 7 ErrMin= 9.13D-04
 ErrMax= 9.13D-04 EMaxC= 1.00D-01 BMatC= 2.22D-05 BMatP= 3.04D-04
 IDIUse=3 WtCom= 9.91D-01 WtEn= 9.13D-03
 Coeff-Com:  0.102D-01-0.150D+00 0.143D+00 0.485D+00-0.426D+00-0.408D+00
 Coeff-Com:  0.135D+01
 Coeff-En:   0.000D+00 0.000D+00 0.000D+00 0.000D+00 0.000D+00 0.000D+00
 Coeff-En:   0.100D+01
 Coeff:      0.101D-01-0.148D+00 0.141D+00 0.481D+00-0.422D+00-0.405D+00
 Coeff:      0.134D+01
 Gap=     0.593 Goal=   None    Shift=    0.000
 Gap=     0.590 Goal=   None    Shift=    0.000
 RMSDP=4.43D-04 MaxDP=2.85D-03 DE=-8.55D-04 OVMax= 0.00D+00

 Cycle   8  Pass 1  IDiag  1:
 E= -165.456580277598     Delta-E=       -0.000026568932 Rises=F Damp=F
 DIIS: error= 3.71D-04 at cycle   8 NSaved=   8.
 NSaved= 8 IEnMin= 8 EnMin= -165.456580277598     IErMin= 8 ErrMin= 3.71D-04
 ErrMax= 3.71D-04 EMaxC= 1.00D-01 BMatC= 5.46D-06 BMatP= 2.22D-05
 IDIUse=3 WtCom= 9.96D-01 WtEn= 3.71D-03
 Coeff-Com: -0.579D-02 0.955D-01-0.909D-01-0.340D+00 0.309D+00 0.107D+00
 Coeff-Com: -0.108D+01 0.201D+01
 Coeff-En:   0.000D+00 0.000D+00 0.000D+00 0.000D+00 0.000D+00 0.000D+00
 Coeff-En:   0.000D+00 0.100D+01
 Coeff:     -0.577D-02 0.952D-01-0.906D-01-0.339D+00 0.308D+00 0.107D+00
 Coeff:     -0.108D+01 0.200D+01
 Gap=     0.594 Goal=   None    Shift=    0.000
 Gap=     0.593 Goal=   None    Shift=    0.000
 RMSDP=7.69D-04 MaxDP=7.14D-03 DE=-2.66D-05 OVMax= 0.00D+00

 Cycle   9  Pass 1  IDiag  1:
 E= -165.456589788562     Delta-E=       -0.000009510964 Rises=F Damp=F
 DIIS: error= 2.29D-04 at cycle   9 NSaved=   9.
 NSaved= 9 IEnMin= 9 EnMin= -165.456589788562     IErMin= 9 ErrMin= 2.29D-04
 ErrMax= 2.29D-04 EMaxC= 1.00D-01 BMatC= 2.11D-06 BMatP= 5.46D-06
 IDIUse=3 WtCom= 9.98D-01 WtEn= 2.29D-03
 Coeff-Com:  0.534D-03-0.981D-02 0.548D-02 0.701D-01-0.613D-01 0.120D+00
 Coeff-Com:  0.151D+00-0.702D+00 0.143D+01
 Coeff-En:   0.000D+00 0.000D+00 0.000D+00 0.000D+00 0.000D+00 0.000D+00
 Coeff-En:   0.000D+00 0.000D+00 0.100D+01
 Coeff:      0.532D-03-0.979D-02 0.547D-02 0.699D-01-0.612D-01 0.119D+00
 Coeff:      0.151D+00-0.700D+00 0.142D+01
 Gap=     0.594 Goal=   None    Shift=    0.000
 Gap=     0.591 Goal=   None    Shift=    0.000
 RMSDP=4.02D-04 MaxDP=3.71D-03 DE=-9.51D-06 OVMax= 0.00D+00

 Cycle  10  Pass 1  IDiag  1:
 E= -165.456592522788     Delta-E=       -0.000002734226 Rises=F Damp=F
 DIIS: error= 1.00D-04 at cycle  10 NSaved=  10.
 NSaved=10 IEnMin=10 EnMin= -165.456592522788     IErMin=10 ErrMin= 1.00D-04
 ErrMax= 1.00D-04 EMaxC= 1.00D-01 BMatC= 3.75D-07 BMatP= 2.11D-06
 IDIUse=3 WtCom= 9.99D-01 WtEn= 1.00D-03
 Coeff-Com:  0.543D-03-0.981D-02 0.875D-02 0.152D-01-0.195D-01-0.991D-01
 Coeff-Com:  0.108D+00-0.399D-01-0.586D+00 0.162D+01
 Coeff-En:   0.000D+00 0.000D+00 0.000D+00 0.000D+00 0.000D+00 0.000D+00
 Coeff-En:   0.000D+00 0.000D+00 0.000D+00 0.100D+01
 Coeff:      0.542D-03-0.980D-02 0.875D-02 0.152D-01-0.195D-01-0.990D-01
 Coeff:      0.108D+00-0.398D-01-0.585D+00 0.162D+01
 Gap=     0.594 Goal=   None    Shift=    0.000
 Gap=     0.592 Goal=   None    Shift=    0.000
 RMSDP=1.96D-04 MaxDP=1.84D-03 DE=-2.73D-06 OVMax= 0.00D+00

 Cycle  11  Pass 1  IDiag  1:
 E= -165.456593348286     Delta-E=       -0.000000825497 Rises=F Damp=F
 DIIS: error= 4.50D-05 at cycle  11 NSaved=  11.
 NSaved=11 IEnMin=11 EnMin= -165.456593348286     IErMin=11 ErrMin= 4.50D-05
 ErrMax= 4.50D-05 EMaxC= 1.00D-01 BMatC= 6.32D-08 BMatP= 3.75D-07
 IDIUse=1 WtCom= 1.00D+00 WtEn= 0.00D+00
 Coeff-Com: -0.221D-03 0.440D-02-0.305D-02-0.121D-01 0.120D-01 0.136D-01
 Coeff-Com: -0.590D-01 0.137D+00-0.911D-01-0.263D+00 0.126D+01
 Coeff:     -0.221D-03 0.440D-02-0.305D-02-0.121D-01 0.120D-01 0.136D-01
 Coeff:     -0.590D-01 0.137D+00-0.911D-01-0.263D+00 0.126D+01
 Gap=     0.594 Goal=   None    Shift=    0.000
 Gap=     0.592 Goal=   None    Shift=    0.000
 RMSDP=5.31D-05 MaxDP=5.24D-04 DE=-8.25D-07 OVMax= 0.00D+00

 Cycle  12  Pass 1  IDiag  1:
 E= -165.456593468177     Delta-E=       -0.000000119892 Rises=F Damp=F
 DIIS: error= 7.61D-06 at cycle  12 NSaved=  12.
 NSaved=12 IEnMin=12 EnMin= -165.456593468177     IErMin=12 ErrMin= 7.61D-06
 ErrMax= 7.61D-06 EMaxC= 1.00D-01 BMatC= 1.88D-09 BMatP= 6.32D-08
 IDIUse=1 WtCom= 1.00D+00 WtEn= 0.00D+00
 Coeff-Com:  0.227D-04-0.101D-02 0.301D-03 0.159D-02-0.296D-02-0.167D-02
 Coeff-Com:  0.168D-01-0.542D-01 0.583D-01 0.418D-01-0.784D+00 0.172D+01
 Coeff:      0.227D-04-0.101D-02 0.301D-03 0.159D-02-0.296D-02-0.167D-02
 Coeff:      0.168D-01-0.542D-01 0.583D-01 0.418D-01-0.784D+00 0.172D+01
 Gap=     0.594 Goal=   None    Shift=    0.000
 Gap=     0.592 Goal=   None    Shift=    0.000
 RMSDP=1.12D-05 MaxDP=8.47D-05 DE=-1.20D-07 OVMax= 0.00D+00

 Cycle  13  Pass 1  IDiag  1:
 E= -165.456593470915     Delta-E=       -0.000000002738 Rises=F Damp=F
 DIIS: error= 4.53D-06 at cycle  13 NSaved=  13.
 NSaved=13 IEnMin=13 EnMin= -165.456593470915     IErMin=13 ErrMin= 4.53D-06
 ErrMax= 4.53D-06 EMaxC= 1.00D-01 BMatC= 1.15D-09 BMatP= 1.88D-09
 IDIUse=1 WtCom= 1.00D+00 WtEn= 0.00D+00
 Coeff-Com:  0.154D-04-0.920D-06 0.162D-03-0.288D-04 0.875D-03-0.554D-02
 Coeff-Com: -0.148D-02 0.208D-01-0.572D-01 0.103D+00 0.167D+00-0.113D+01
 Coeff-Com:  0.190D+01
 Coeff:      0.154D-04-0.920D-06 0.162D-03-0.288D-04 0.875D-03-0.554D-02
 Coeff:     -0.148D-02 0.208D-01-0.572D-01 0.103D+00 0.167D+00-0.113D+01
 Coeff:      0.190D+01
 Gap=     0.594 Goal=   None    Shift=    0.000
 Gap=     0.592 Goal=   None    Shift=    0.000
 RMSDP=6.84D-06 MaxDP=4.87D-05 DE=-2.74D-09 OVMax= 0.00D+00

 Cycle  14  Pass 1  IDiag  1:
 E= -165.456593473704     Delta-E=       -0.000000002789 Rises=F Damp=F
 DIIS: error= 2.15D-06 at cycle  14 NSaved=  14.
 NSaved=14 IEnMin=14 EnMin= -165.456593473704     IErMin=14 ErrMin= 2.15D-06
 ErrMax= 2.15D-06 EMaxC= 1.00D-01 BMatC= 1.80D-10 BMatP= 1.15D-09
 IDIUse=1 WtCom= 1.00D+00 WtEn= 0.00D+00
 Coeff-Com: -0.257D-04 0.198D-03-0.102D-03-0.758D-03-0.387D-03 0.752D-02
 Coeff-Com: -0.160D-02-0.162D-01 0.612D-01-0.131D+00-0.627D-01 0.110D+01
 Coeff-Com: -0.269D+01 0.273D+01
 Coeff:     -0.257D-04 0.198D-03-0.102D-03-0.758D-03-0.387D-03 0.752D-02
 Coeff:     -0.160D-02-0.162D-01 0.612D-01-0.131D+00-0.627D-01 0.110D+01
 Coeff:     -0.269D+01 0.273D+01
 Gap=     0.594 Goal=   None    Shift=    0.000
 Gap=     0.592 Goal=   None    Shift=    0.000
 RMSDP=4.82D-06 MaxDP=2.75D-05 DE=-2.79D-09 OVMax= 0.00D+00

 Cycle  15  Pass 1  IDiag  1:
 E= -165.456593474259     Delta-E=       -0.000000000555 Rises=F Damp=F
 DIIS: error= 1.67D-06 at cycle  15 NSaved=  15.
 NSaved=15 IEnMin=15 EnMin= -165.456593474259     IErMin=15 ErrMin= 1.67D-06
 ErrMax= 1.67D-06 EMaxC= 1.00D-01 BMatC= 9.36D-11 BMatP= 1.80D-10
 IDIUse=1 WtCom= 1.00D+00 WtEn= 0.00D+00
 Coeff-Com:  0.113D-04-0.337D-04-0.107D-03 0.739D-03 0.261D-03-0.238D-02
 Coeff-Com:  0.520D-03 0.613D-02-0.180D-01 0.298D-01 0.709D-01-0.526D+00
 Coeff-Com:  0.132D+01-0.165D+01 0.177D+01
 Coeff:      0.113D-04-0.337D-04-0.107D-03 0.739D-03 0.261D-03-0.238D-02
 Coeff:      0.520D-03 0.613D-02-0.180D-01 0.298D-01 0.709D-01-0.526D+00
 Coeff:      0.132D+01-0.165D+01 0.177D+01
 Gap=     0.594 Goal=   None    Shift=    0.000
 Gap=     0.592 Goal=   None    Shift=    0.000
 RMSDP=1.57D-06 MaxDP=1.06D-05 DE=-5.55D-10 OVMax= 0.00D+00

 Cycle  16  Pass 1  IDiag  1:
 E= -165.456593474455     Delta-E=       -0.000000000196 Rises=F Damp=F
 DIIS: error= 6.84D-07 at cycle  16 NSaved=  16.
 NSaved=16 IEnMin=16 EnMin= -165.456593474455     IErMin=16 ErrMin= 6.84D-07
 ErrMax= 6.84D-07 EMaxC= 1.00D-01 BMatC= 2.62D-11 BMatP= 9.36D-11
 IDIUse=1 WtCom= 1.00D+00 WtEn= 0.00D+00
 Coeff-Com: -0.659D-05-0.277D-04 0.249D-03-0.537D-03-0.591D-03 0.264D-02
 Coeff-Com: -0.438D-03-0.612D-02 0.185D-01-0.283D-01-0.526D-01 0.444D+00
 Coeff-Com: -0.123D+01 0.175D+01-0.264D+01 0.275D+01
 Coeff:     -0.659D-05-0.277D-04 0.249D-03-0.537D-03-0.591D-03 0.264D-02
 Coeff:     -0.438D-03-0.612D-02 0.185D-01-0.283D-01-0.526D-01 0.444D+00
 Coeff:     -0.123D+01 0.175D+01-0.264D+01 0.275D+01
 Gap=     0.594 Goal=   None    Shift=    0.000
 Gap=     0.592 Goal=   None    Shift=    0.000
 RMSDP=1.21D-06 MaxDP=9.44D-06 DE=-1.96D-10 OVMax= 0.00D+00

 Cycle  17  Pass 1  IDiag  1:
 E= -165.456593474548     Delta-E=       -0.000000000093 Rises=F Damp=F
 DIIS: error= 5.26D-07 at cycle  17 NSaved=  17.
 NSaved=17 IEnMin=17 EnMin= -165.456593474548     IErMin=17 ErrMin= 5.26D-07
 ErrMax= 5.26D-07 EMaxC= 1.00D-01 BMatC= 1.19D-11 BMatP= 2.62D-11
 IDIUse=1 WtCom= 1.00D+00 WtEn= 0.00D+00
 Coeff-Com:  0.201D-05 0.682D-04-0.316D-03 0.231D-03 0.844D-03-0.290D-02
 Coeff-Com:  0.329D-03 0.605D-02-0.197D-01 0.301D-01 0.283D-01-0.340D+00
 Coeff-Com:  0.103D+01-0.160D+01 0.281D+01-0.409D+01 0.314D+01
 Coeff:      0.201D-05 0.682D-04-0.316D-03 0.231D-03 0.844D-03-0.290D-02
 Coeff:      0.329D-03 0.605D-02-0.197D-01 0.301D-01 0.283D-01-0.340D+00
 Coeff:      0.103D+01-0.160D+01 0.281D+01-0.409D+01 0.314D+01
 Gap=     0.594 Goal=   None    Shift=    0.000
 Gap=     0.592 Goal=   None    Shift=    0.000
 RMSDP=1.43D-06 MaxDP=1.29D-05 DE=-9.28D-11 OVMax= 0.00D+00

 Cycle  18  Pass 1  IDiag  1:
 E= -165.456593474613     Delta-E=       -0.000000000065 Rises=F Damp=F
 DIIS: error= 5.07D-07 at cycle  18 NSaved=  18.
 NSaved=18 IEnMin=18 EnMin= -165.456593474613     IErMin=18 ErrMin= 5.07D-07
 ErrMax= 5.07D-07 EMaxC= 1.00D-01 BMatC= 1.28D-11 BMatP= 1.19D-11
 IDIUse=1 WtCom= 1.00D+00 WtEn= 0.00D+00
 Coeff-Com: -0.557D-05-0.593D-04 0.371D-03-0.545D-03-0.987D-03 0.342D-02
 Coeff-Com: -0.668D-03-0.680D-02 0.216D-01-0.279D-01-0.619D-01 0.473D+00
 Coeff-Com: -0.135D+01 0.203D+01-0.349D+01 0.548D+01-0.583D+01 0.375D+01
 Coeff:     -0.557D-05-0.593D-04 0.371D-03-0.545D-03-0.987D-03 0.342D-02
 Coeff:     -0.668D-03-0.680D-02 0.216D-01-0.279D-01-0.619D-01 0.473D+00
 Coeff:     -0.135D+01 0.203D+01-0.349D+01 0.548D+01-0.583D+01 0.375D+01
 Gap=     0.594 Goal=   None    Shift=    0.000
 Gap=     0.592 Goal=   None    Shift=    0.000
 RMSDP=2.02D-06 MaxDP=1.80D-05 DE=-6.51D-11 OVMax= 0.00D+00

 Cycle  19  Pass 1  IDiag  1:
 E= -165.456593474686     Delta-E=       -0.000000000073 Rises=F Damp=F
 DIIS: error= 1.19D-07 at cycle  19 NSaved=  19.
 NSaved=19 IEnMin=19 EnMin= -165.456593474686     IErMin=19 ErrMin= 1.19D-07
 ErrMax= 1.19D-07 EMaxC= 1.00D-01 BMatC= 1.10D-12 BMatP= 1.19D-11
 IDIUse=1 WtCom= 1.00D+00 WtEn= 0.00D+00
 Coeff-Com:  0.129D-05 0.317D-04-0.158D-03 0.172D-03 0.448D-03-0.132D-02
 Coeff-Com:  0.280D-03 0.220D-02-0.733D-02 0.685D-02 0.251D-01-0.159D+00
 Coeff-Com:  0.464D+00-0.727D+00 0.135D+01-0.244D+01 0.329D+01-0.295D+01
 Coeff-Com:  0.214D+01
 Coeff:      0.129D-05 0.317D-04-0.158D-03 0.172D-03 0.448D-03-0.132D-02
 Coeff:      0.280D-03 0.220D-02-0.733D-02 0.685D-02 0.251D-01-0.159D+00
 Coeff:      0.464D+00-0.727D+00 0.135D+01-0.244D+01 0.329D+01-0.295D+01
 Coeff:      0.214D+01
 Gap=     0.594 Goal=   None    Shift=    0.000
 Gap=     0.592 Goal=   None    Shift=    0.000
 RMSDP=7.48D-07 MaxDP=6.81D-06 DE=-7.32D-11 OVMax= 0.00D+00

 Cycle  20  Pass 1  IDiag  1:
 E= -165.456593474693     Delta-E=       -0.000000000007 Rises=F Damp=F
 DIIS: error= 3.87D-08 at cycle  20 NSaved=  20.
 NSaved=20 IEnMin=20 EnMin= -165.456593474693     IErMin=20 ErrMin= 3.87D-08
 ErrMax= 3.87D-08 EMaxC= 1.00D-01 BMatC= 1.27D-13 BMatP= 1.10D-12
 IDIUse=1 WtCom= 1.00D+00 WtEn= 0.00D+00
 Large coefficients: NSaved= 20 BigCof=    0.00 CofMax=   10.00 Det=-8.56D-15
 Inversion failed.  Reducing to 19 matrices.
 Large coefficients: NSaved= 19 BigCof=    0.00 CofMax=   10.00 Det=-9.70D-15
 Inversion failed.  Reducing to 18 matrices.
 Coeff-Com:  0.545D-05-0.363D-05-0.398D-04 0.676D-04-0.704D-04 0.222D-03
 Coeff-Com: -0.287D-03 0.160D-02-0.174D-02-0.140D-02 0.117D-02 0.775D-02
 Coeff-Com: -0.500D-01 0.210D+00-0.586D+00 0.806D+00-0.946D+00 0.156D+01
 Coeff:      0.545D-05-0.363D-05-0.398D-04 0.676D-04-0.704D-04 0.222D-03
 Coeff:     -0.287D-03 0.160D-02-0.174D-02-0.140D-02 0.117D-02 0.775D-02
 Coeff:     -0.500D-01 0.210D+00-0.586D+00 0.806D+00-0.946D+00 0.156D+01
 Gap=     0.594 Goal=   None    Shift=    0.000
 Gap=     0.592 Goal=   None    Shift=    0.000
 RMSDP=1.15D-07 MaxDP=9.73D-07 DE=-6.96D-12 OVMax= 0.00D+00

 Cycle  21  Pass 1  IDiag  1:
 E= -165.456593474693     Delta-E=        0.000000000000 Rises=F Damp=F
 DIIS: error= 9.25D-09 at cycle  21 NSaved=  19.
 NSaved=19 IEnMin=19 EnMin= -165.456593474693     IErMin=19 ErrMin= 9.25D-09
 ErrMax= 9.25D-09 EMaxC= 1.00D-01 BMatC= 6.71D-15 BMatP= 1.27D-13
 IDIUse=1 WtCom= 1.00D+00 WtEn= 0.00D+00
 Large coefficients: NSaved= 19 BigCof=    0.00 CofMax=   10.00 Det=-3.02D-15
 Inversion failed.  Reducing to 18 matrices.
 Large coefficients: NSaved= 18 BigCof=    0.00 CofMax=   10.00 Det=-3.27D-15
 Inversion failed.  Reducing to 17 matrices.
 Large coefficients: NSaved= 17 BigCof=    0.00 CofMax=   10.00 Det=-3.43D-15
 Inversion failed.  Reducing to 16 matrices.
 Large coefficients: NSaved= 16 BigCof=    0.00 CofMax=   10.00 Det=-8.72D-15
 Inversion failed.  Reducing to 15 matrices.
 Coeff-Com:  0.305D-05-0.314D-04 0.525D-04-0.818D-04-0.149D-03 0.184D-03
 Coeff-Com:  0.506D-03-0.160D-02 0.264D-02 0.829D-02-0.234D-02-0.271D-01
 Coeff-Com:  0.697D-01-0.302D+00 0.125D+01
 Coeff:      0.305D-05-0.314D-04 0.525D-04-0.818D-04-0.149D-03 0.184D-03
 Coeff:      0.506D-03-0.160D-02 0.264D-02 0.829D-02-0.234D-02-0.271D-01
 Coeff:      0.697D-01-0.302D+00 0.125D+01
 Gap=     0.594 Goal=   None    Shift=    0.000
 Gap=     0.592 Goal=   None    Shift=    0.000
 RMSDP=1.30D-08 MaxDP=9.04D-08 DE=-2.84D-13 OVMax= 0.00D+00

 Cycle  22  Pass 1  IDiag  1:
 E= -165.456593474693     Delta-E=        0.000000000000 Rises=F Damp=F
 DIIS: error= 3.46D-09 at cycle  22 NSaved=  16.
 NSaved=16 IEnMin=15 EnMin= -165.456593474693     IErMin=16 ErrMin= 3.46D-09
 ErrMax= 3.46D-09 EMaxC= 1.00D-01 BMatC= 8.10D-16 BMatP= 6.71D-15
 IDIUse=1 WtCom= 1.00D+00 WtEn= 0.00D+00
 Large coefficients: NSaved= 16 BigCof=    0.00 CofMax=   10.00 Det=-4.92D-16
 Inversion failed.  Reducing to 15 matrices.
 Coeff-Com:  0.525D-05-0.739D-05 0.540D-06 0.610D-04 0.114D-03-0.987D-03
 Coeff-Com:  0.221D-02-0.391D-02-0.212D-02 0.697D-02-0.104D-02-0.702D-02
 Coeff-Com:  0.809D-01-0.751D+00 0.168D+01
 Coeff:      0.525D-05-0.739D-05 0.540D-06 0.610D-04 0.114D-03-0.987D-03
 Coeff:      0.221D-02-0.391D-02-0.212D-02 0.697D-02-0.104D-02-0.702D-02
 Coeff:      0.809D-01-0.751D+00 0.168D+01
 Gap=     0.594 Goal=   None    Shift=    0.000
 Gap=     0.592 Goal=   None    Shift=    0.000
 RMSDP=3.71D-09 MaxDP=1.61D-08 DE= 1.71D-13 OVMax= 0.00D+00

 SCF Done:  E(UHF) =  -165.456593475     A.U. after   22 cycles
             Convg  =    0.3710D-08             -V/T =  2.0077
 <Sx>= 0.0000 <Sy>= 0.0000 <Sz>= 1.0000 <S**2>= 2.2568 S= 1.0833
 <L.S>= 0.000000000000E+00
 KE= 1.641855112785D+02 PE=-5.016608039090D+02 EE= 1.162635981604D+02
 Annihilation of the first spin contaminant:
 S**2 before annihilation     2.2568,   after     2.0053
 Leave Link  502 at Sun Nov 14 20:00:27 2021, MaxMem=    8388608 cpu:       0.0
 (Enter C:\G09W\l601.exe)
 Copying SCF densities to generalized density rwf, IOpCl= 1 IROHF=0.

 **********************************************************************

            Population analysis using the SCF density.

 **********************************************************************

 Orbital symmetries:
 Alpha Orbitals:
       Occupied  (A) (A) (A) (A) (A) (A) (A) (A) (A) (A) (A) (A)
       Virtual   (A) (A) (A) (A)
 Beta  Orbitals:
       Occupied  (A) (A) (A) (A) (A) (A) (A) (A) (A) (A)
       Virtual   (A) (A) (A) (A) (A) (A)
 The electronic state is 3-A.
 Alpha  occ. eigenvalues --  -20.38628 -15.40375 -11.08499  -1.41434  -1.19034
 Alpha  occ. eigenvalues --   -0.73179  -0.64545  -0.59498  -0.56975  -0.49343
 Alpha  occ. eigenvalues --   -0.47142  -0.27335
 Alpha virt. eigenvalues --    0.32054   0.54594   0.72670   0.94346
  Beta  occ. eigenvalues --  -20.35885 -15.37614 -11.07980  -1.30376  -1.06473
  Beta  occ. eigenvalues --   -0.68290  -0.55063  -0.45697  -0.42636  -0.38810
  Beta virt. eigenvalues --    0.20374   0.27362   0.43229   0.58666   0.75783
  Beta virt. eigenvalues --    1.01986
          Condensed to atoms (all electrons):
              1          2          3          4
     1  H    0.557522   0.306502  -0.042903   0.001075
     2  N    0.306502   6.586687   0.332619  -0.014624
     3  C   -0.042903   0.332619   5.194391   0.368392
     4  O    0.001075  -0.014624   0.368392   7.759276
 Mulliken atomic charges:
              1
     1  H    0.177803
     2  N   -0.211184
     3  C    0.147500
     4  O   -0.114120
 Sum of Mulliken atomic charges =   0.00000
 Mulliken charges with hydrogens summed into heavy atoms:
              1
     2  N   -0.033381
     3  C    0.147500
     4  O   -0.114120
 Sum of Mulliken charges with hydrogens summed into heavy atoms =   0.00000
          Atomic-Atomic Spin Densities.
              1          2          3          4
     1  H   -0.047533  -0.008984  -0.008997   0.000077
     2  N   -0.008984   1.189805  -0.053769   0.000929
     3  C   -0.008997  -0.053769   0.184908  -0.117817
     4  O    0.000077   0.000929  -0.117817   1.049943
 Mulliken atomic spin densities:
              1
     1  H   -0.065437
     2  N    1.127981
     3  C    0.004325
     4  O    0.933132
 Sum of Mulliken atomic spin densities =   2.00000
 Electronic spatial extent (au):  <R**2>=            127.9262
 Charge=              0.0000 electrons
 Dipole moment (field-independent basis, Debye):
    X=              1.1054    Y=              1.2234    Z=              0.0356  Tot=              1.6492
 Quadrupole moment (field-independent basis, Debye-Ang):
   XX=            -15.1127   YY=            -15.7612   ZZ=            -13.9976
   XY=              2.1367   XZ=              0.0649   YZ=              0.0125
 Traceless Quadrupole moment (field-independent basis, Debye-Ang):
   XX=             -0.1555   YY=             -0.8040   ZZ=              0.9595
   XY=              2.1367   XZ=              0.0649   YZ=              0.0125
 Octapole moment (field-independent basis, Debye-Ang**2):
  XXX=              1.9587  YYY=             -0.6761  ZZZ=              0.0325  XYY=             -1.5435
  XXY=              3.7259  XXZ=              0.0781  XZZ=             -1.6503  YZZ=             -0.3778
  YYZ=              0.0384  XYZ=              0.0184
 Hexadecapole moment (field-independent basis, Debye-Ang**3):
 XXXX=            -99.1848 YYYY=            -17.1225 ZZZZ=             -8.8323 XXXY=              6.8731
 XXXZ=              0.1985 YYYX=              1.9309 YYYZ=              0.0182 ZZZX=             -0.0098
 ZZZY=              0.0062 XXYY=            -20.0973 XXZZ=            -17.9713 YYZZ=             -4.2600
 XXYZ=              0.0268 YYXZ=              0.0208 ZZXY=              0.3278
 N-N= 5.575510099534D+01 E-N=-7.401579217667D+02  KE= 2.438008511418D+02
                          Isotropic Fermi Contact Couplings
        Atom                 a.u.       MegaHertz       Gauss      10(-4) cm-1
     1  H(1)              -0.01921     -42.92247     -15.31581     -14.31740
     2  N(14)              0.12933      20.89377       7.45542       6.96941
     3  C(13)              0.22375     125.76989      44.87782      41.95232
     4  O(17)              0.12346     -37.41982     -13.35232     -12.48191
 --------------------------------------------------------
       Center         ----  Spin Dipole Couplings  ----
                      3XX-RR        3YY-RR        3ZZ-RR
 --------------------------------------------------------
     1   Atom        0.039490      0.026997     -0.066487
     2   Atom       -0.657663     -0.614403      1.272066
     3   Atom        0.026149      0.970987     -0.997136
     4   Atom       -1.319858     -0.188049      1.507908
 --------------------------------------------------------
                        XY            XZ            YZ
 --------------------------------------------------------
     1   Atom        0.128423      0.003858      0.003383
     2   Atom       -0.285152     -0.026936     -0.044050
     3   Atom        0.050533     -0.002527      0.009630
     4   Atom        0.149302      0.043955     -0.047666
 --------------------------------------------------------


 ---------------------------------------------------------------------------------
              Anisotropic Spin Dipole Couplings in Principal Axis System
 ---------------------------------------------------------------------------------

       Atom             a.u.   MegaHertz   Gauss  10(-4) cm-1        Axes

              Baa    -0.0953   -50.865   -18.150   -16.967 -0.6898  0.7240  0.0073
     1 H(1)   Bbb    -0.0666   -35.535   -12.680   -11.853 -0.0112 -0.0208  0.9997
              Bcc     0.1619    86.400    30.830    28.820  0.7239  0.6895  0.0224
 
              Baa    -0.9231   -35.603   -12.704   -11.876  0.7328  0.6801  0.0226
     2 N(14)  Bbb    -0.3502   -13.506    -4.819    -4.505 -0.6804  0.7328  0.0086
              Bcc     1.2733    49.109    17.523    16.381 -0.0107 -0.0217  0.9997
 
              Baa    -0.9972  -133.813   -47.748   -44.635  0.0027 -0.0050  1.0000
     3 C(13)  Bbb     0.0235     3.148     1.123     1.050  0.9986 -0.0532 -0.0030
              Bcc     0.9737   130.665    46.625    43.585  0.0532  0.9986  0.0048
 
              Baa    -1.3401    96.968    34.601    32.345  0.9915 -0.1292 -0.0175
     4 O(17)  Bbb    -0.1697    12.281     4.382     4.096  0.1296  0.9913  0.0248
              Bcc     1.5098  -109.249   -38.983   -36.441  0.0141 -0.0268  0.9995
 

 ---------------------------------------------------------------------------------

 No NMR shielding tensors so no spin-rotation constants.
 Leave Link  601 at Sun Nov 14 20:00:27 2021, MaxMem=    8388608 cpu:       0.0
 (Enter C:\G09W\l701.exe)
 Compute integral first derivatives.
 ... and contract with generalized density number  0.
 Leave Link  701 at Sun Nov 14 20:00:27 2021, MaxMem=    8388608 cpu:       0.0
 (Enter C:\G09W\l702.exe)
 L702 exits ... SP integral derivatives will be done elsewhere.
 Leave Link  702 at Sun Nov 14 20:00:28 2021, MaxMem=    8388608 cpu:       0.0
 (Enter C:\G09W\l703.exe)
 Compute integral first derivatives, UseDBF=F ICtDFT=           0.
 Integral derivatives from FoFDir, PRISM(SPDF).
 Calling FoFJK, ICntrl=      2127 FMM=F ISym2X=0 I1Cent= 0 IOpClX= 1 NMat=1 NMatS=1 NMatT=0.
 FoFCou: FMM=F IPFlag=           0 FMFlag=      100000 FMFlg1=         800
         NFxFlg=           0 DoJE=F BraDBF=F KetDBF=F FulRan=T
         Omega=  0.000000  0.000000  1.000000  0.000000  0.000000 ICntrl=    2127 IOpCl=  1
         NMat0=    1 NMatS0=    1 NMatT0=    0 NMatD0=    1 NMtDS0=    0 NMtDT0=    0
         I1Cent=           0 NGrid=           0.
 Symmetry not used in FoFCou.
 Leave Link  703 at Sun Nov 14 20:00:28 2021, MaxMem=    8388608 cpu:       0.0
 (Enter C:\G09W\l716.exe)
 Dipole        = 4.34881517D-01 4.81320248D-01 1.39950585D-02
 ***** Axes restored to original set *****
 -------------------------------------------------------------------
 Center     Atomic                   Forces (Hartrees/Bohr)
 Number     Number              X              Y              Z
 -------------------------------------------------------------------
      1        1           0.003413445    0.000458499   -0.000965499
      2        7          -0.047318096   -0.000857655    0.008317533
      3        6           0.042051611    0.001445719   -0.054982588
      4        8           0.001853039   -0.001046563    0.047630554
 -------------------------------------------------------------------
 Cartesian Forces:  Max     0.054982588 RMS     0.027970855
 -----------------------------------------------------------------------------------------------
                       Internal Coordinate Forces (Hartree/Bohr or radian)
  Cent   Atom   N1       Length/X         N2         Alpha/Y        N3         Beta/Z          J
 -----------------------------------------------------------------------------------------------
      1  H 
      2  N        1   0.000965(     1)
      3  C        2   0.039592(     2)      1  -0.006778(     4)
      4  O        3   0.043480(     3)      2  -0.045622(     5)      1  -0.000867(     6)     0
 -----------------------------------------------------------------------------------------------
 Internal  Forces:  Max     0.045622064 RMS     0.030515273
 Force constants in Cartesian coordinates: 
                1             2             3             4             5 
      1  0.405743D-01
      2  0.000000D+00  0.610738D-02
      3  0.000000D+00  0.000000D+00  0.397610D+00
      4 -0.500856D-01 -0.461857D-04  0.000000D+00  0.541027D+00
      5  0.000000D+00 -0.318807D-02  0.000000D+00  0.423837D-03  0.171010D-02
      6  0.298091D-01  0.144750D-03 -0.397610D+00  0.104086D+00 -0.132834D-02
      7  0.951128D-02  0.119390D-03  0.000000D+00 -0.502260D+00 -0.176225D-02
      8  0.000000D+00 -0.981557D-02  0.000000D+00 -0.632728D-03  0.504254D-02
      9 -0.298091D-01 -0.374177D-03  0.000000D+00 -0.984610D-01  0.209415D-02
     10  0.000000D+00 -0.732038D-04  0.000000D+00  0.113184D-01  0.133842D-02
     11  0.000000D+00  0.689626D-02  0.000000D+00  0.255077D-03 -0.356457D-02
     12  0.000000D+00  0.229427D-03  0.000000D+00 -0.562539D-02 -0.765811D-03
                6             7             8             9            10 
      6  0.502123D+00
      7 -0.984227D-01  0.717828D+00
      8  0.198302D-02 -0.713624D-02  0.164785D-01
      9 -0.122143D+00  0.430070D+00 -0.227529D-01  0.863374D+00
     10 -0.354728D-01 -0.225079D+00  0.776897D-02 -0.301800D+00  0.213760D+00
     11 -0.799434D-03  0.877910D-02 -0.117055D-01  0.210329D-01 -0.903418D-02
     12  0.176305D-01 -0.331647D+00  0.207698D-01 -0.741231D+00  0.337272D+00
               11            12 
     11  0.837377D-02
     12 -0.202334D-01  0.723600D+00
 Force constants in internal coordinates: 
                1             2             3             4             5 
      1  0.397610D+00
      2  0.000000D+00  0.524153D+00
      3  0.000000D+00  0.000000D+00  0.892008D+00
      4  0.000000D+00  0.000000D+00  0.000000D+00  0.160000D+00
      5  0.000000D+00  0.000000D+00  0.000000D+00  0.000000D+00  0.250000D+00
      6  0.000000D+00  0.000000D+00  0.000000D+00  0.000000D+00  0.000000D+00
                6 
      6  0.218584D-01
 Leave Link  716 at Sun Nov 14 20:00:28 2021, MaxMem=    8388608 cpu:       0.0
 (Enter C:\G09W\l103.exe)

 GradGradGradGradGradGradGradGradGradGradGradGradGradGradGradGradGradGrad
 Berny optimization.
 Search for a local minimum.
 Step number   1 out of a maximum of   20
 All quantities printed in internal units (Hartrees-Bohrs-Radians)
 Second derivative matrix not updated -- first step.
 The second derivative matrix:
                          B1        B2        B3        A1        A2
           B1           0.39761
           B2           0.00000   0.52415
           B3           0.00000   0.00000   0.89201
           A1           0.00000   0.00000   0.00000   0.16000
           A2           0.00000   0.00000   0.00000   0.00000   0.25000
           D1           0.00000   0.00000   0.00000   0.00000   0.00000
                          D1
           D1           0.02186
 ITU=  0
     Eigenvalues ---    0.02186   0.16000   0.25000   0.39761   0.52415
     Eigenvalues ---    0.89201
 RFO step:  Lambda=-1.32025444D-02 EMin= 2.18583598D-02
 Linear search not attempted -- first point.
 Variable       Old X    -DE/DX   Delta X   Delta X   Delta X     New X
                                 (Linear)    (Quad)   (Total)
    B1        1.98579   0.00097   0.00000   0.00235   0.00235   1.98814
    B2        2.57504   0.03959   0.00000   0.07368   0.07368   2.64872
    B3        2.33304   0.04348   0.00000   0.04803   0.04803   2.38107
    A1        1.87966  -0.00678   0.00000  -0.03914  -0.03914   1.84052
    A2        2.34111  -0.04562   0.00000  -0.17333  -0.17333   2.16778
    D1        3.17650  -0.00087   0.00000  -0.02474  -0.02474   3.15176
         Item               Value     Threshold  Converged?
 Maximum Force            0.045622     0.000450     NO 
 RMS     Force            0.030515     0.000300     NO 
 Maximum Displacement     0.173334     0.001800     NO 
 RMS     Displacement     0.081578     0.001200     NO 
 Predicted change in Energy=-6.864860D-03
 GradGradGradGradGradGradGradGradGradGradGradGradGradGradGradGradGradGrad

 Leave Link  103 at Sun Nov 14 20:00:28 2021, MaxMem=    8388608 cpu:       0.0
 (Enter C:\G09W\l202.exe)
 ---------------------------------------------------------------------------------------------------
                            Z-MATRIX (ANGSTROMS AND DEGREES)
   CD    Cent   Atom    N1       Length/X        N2       Alpha/Y        N3        Beta/Z          J
 ---------------------------------------------------------------------------------------------------
      1      1  H 
      2      2  N        1   1.052081(     1)
      3      3  C        2   1.401641(     2)      1  105.454(     4)
      4      4  O        3   1.260007(     3)      2  124.205(     5)      1  180.583(     6)      0
 ---------------------------------------------------------------------------------------------------
                         Z-Matrix orientation:                         
 ---------------------------------------------------------------------
 Center     Atomic      Atomic             Coordinates (Angstroms)
 Number     Number       Type             X           Y           Z
 ---------------------------------------------------------------------
      1          1           0        0.000000    0.000000    0.000000
      2          7           0        0.000000    0.000000    1.052081
      3          6           0        1.350963    0.000000    1.425572
      4          8           0        1.756003   -0.010594    2.618655
 ---------------------------------------------------------------------
                    Distance matrix (angstroms):
                    1          2          3          4
     1  H    0.000000
     2  N    1.052081   0.000000
     3  C    1.964015   1.401641   0.000000
     4  O    3.152937   2.353256   1.260007   0.000000
 Stoichiometry    CHNO(3)
 Framework group  C1[X(CHNO)]
 Deg. of freedom     6
 Full point group                 C1      NOp   1
 RotChk:  IX=0 Diff= 5.67D-02
 Largest Abelian subgroup         C1      NOp   1
 Largest concise Abelian subgroup C1      NOp   1
                         Standard orientation:                         
 ---------------------------------------------------------------------
 Center     Atomic      Atomic             Coordinates (Angstroms)
 Number     Number       Type             X           Y           Z
 ---------------------------------------------------------------------
      1          1           0        1.893899    0.485174    0.007077
      2          7           0        1.154815   -0.263537   -0.000716
      3          6           0       -0.069007    0.419730   -0.001492
      4          8           0       -1.195445   -0.144849    0.000861
 ---------------------------------------------------------------------
 Rotational constants (GHZ):    139.1038089     11.1946775     10.3609017
 Leave Link  202 at Sun Nov 14 20:00:28 2021, MaxMem=    8388608 cpu:       0.0
 (Enter C:\G09W\l301.exe)
 Standard basis: STO-3G (5D, 7F)
 Ernie: Thresh=  0.10000D-02 Tol=  0.10000D-05 Strict=F.
 There are    16 symmetry adapted basis functions of A   symmetry.
 Integral buffers will be    262144 words long.
 Raffenetti 2 integral format.
 Two-electron integral symmetry is turned on.
    16 basis functions,    48 primitive gaussians,    16 cartesian basis functions
    12 alpha electrons       10 beta electrons
       nuclear repulsion energy        55.0886610982 Hartrees.
 IExCor=    0 DFT=F Ex=HF Corr=None ExCW=0 ScaHFX=  1.000000
 ScaDFX=  1.000000  1.000000  1.000000  1.000000 ScalE2=  1.000000  1.000000
 IRadAn=      0 IRanWt=     -1 IRanGd=            0 ICorTp=0
 NAtoms=    4 NActive=    4 NUniq=    4 SFac= 1.00D+00 NAtFMM=   60 NAOKFM=F Big=F
 Leave Link  301 at Sun Nov 14 20:00:28 2021, MaxMem=    8388608 cpu:       0.0
 (Enter C:\G09W\l302.exe)
 NPDir=0 NMtPBC=     1 NCelOv=     1 NCel=       1 NClECP=     1 NCelD=      1
         NCelK=      1 NCelE2=     1 NClLst=     1 CellRange=     0.0.
 One-electron integrals computed using PRISM.
 NBasis=    16 RedAO= T  NBF=    16
 NBsUse=    16 1.00D-06 NBFU=    16
 Leave Link  302 at Sun Nov 14 20:00:29 2021, MaxMem=    8388608 cpu:       0.0
 (Enter C:\G09W\l303.exe)
 DipDrv:  MaxL=1.
 Leave Link  303 at Sun Nov 14 20:00:29 2021, MaxMem=    8388608 cpu:       0.0
 (Enter C:\G09W\l401.exe)
 Initial guess read from the read-write file.
 B after Tr=     0.000000    0.000000    0.000000
         Rot=    1.000000    0.000000    0.000000    0.000000 Ang=   0.00 deg.
 Guess basis will be translated and rotated to current coordinates.
 Initial guess orbital symmetries:
 Alpha Orbitals:
       Occupied  (A) (A) (A) (A) (A) (A) (A) (A) (A) (A) (A) (A)
       Virtual   (A) (A) (A) (A)
 Beta  Orbitals:
       Occupied  (A) (A) (A) (A) (A) (A) (A) (A) (A) (A)
       Virtual   (A) (A) (A) (A) (A) (A)
 The electronic state of the initial guess is 3-A.
 Initial guess <Sx>= 0.0000 <Sy>= 0.0000 <Sz>= 1.0000 <S**2>= 2.2652 S= 1.0859
 Generating alternative initial guess.
 Harris functional with IExCor=  205 diagonalized for initial guess.
 ExpMin= 1.69D-01 ExpMax= 1.31D+02 ExpMxC= 1.31D+02 IAcc=1 IRadAn=         1 AccDes= 0.00D+00
 HarFok:  IExCor=  205 AccDes= 0.00D+00 IRadAn=         1 IDoV= 1
 ScaDFX=  1.000000  1.000000  1.000000  1.000000
 FoFCou: FMM=F IPFlag=           0 FMFlag=      100000 FMFlg1=           0
         NFxFlg=           0 DoJE=T BraDBF=F KetDBF=T FulRan=T
         Omega=  0.000000  0.000000  1.000000  0.000000  0.000000 ICntrl=     500 IOpCl=  0
         NMat0=    1 NMatS0=    1 NMatT0=    0 NMatD0=    1 NMtDS0=    0 NMtDT0=    0
         I1Cent=           4 NGrid=           0.
 Petite list used in FoFCou.
 Harris En= -165.377821661113    
 Leave Link  401 at Sun Nov 14 20:00:29 2021, MaxMem=    8388608 cpu:       0.0
 (Enter C:\G09W\l502.exe)
 UHF open shell SCF:
 Requested convergence on RMS density matrix=1.00D-08 within 999 cycles.
 Requested convergence on MAX density matrix=1.00D-06.
 Requested convergence on             energy=1.00D-06.
 No special actions if energy rises.
 Using DIIS extrapolation, IDIIS=  1040.
 Integral symmetry usage will be decided dynamically.
 Keep R1 and R2 ints in memory in canonical form, NReq=1824341.
 IEnd=     1005688 IEndB=     1005688 NGot=     8388608 MDV=     8364722
 LenX=     8364722 LenY=     8363840
 Symmetry not used in FoFDir.
 MinBra= 0 MaxBra= 1 Meth= 1.
 IRaf=       0 NMat=   1 IRICut=       1 DoRegI=T DoRafI=F ISym2E= 0 JSym2E=0.

 Cycle   1  Pass 1  IDiag  1:
 E= -165.455079350956    
 DIIS: error= 1.53D-02 at cycle   1 NSaved=   1.
 NSaved= 1 IEnMin= 1 EnMin= -165.455079350956     IErMin= 1 ErrMin= 1.53D-02
 ErrMax= 1.53D-02 EMaxC= 1.00D-01 BMatC= 1.53D-02 BMatP= 1.53D-02
 IDIUse=3 WtCom= 8.47D-01 WtEn= 1.53D-01
 Coeff-Com:  0.100D+01
 Coeff-En:   0.100D+01
 Coeff:      0.100D+01
 Recover alternate guess density for next cycle.
 RMSDP=3.08D-02 MaxDP=3.30D-01              OVMax= 0.00D+00

 Cycle   2  Pass 1  IDiag  1:
 E= -165.406095701358     Delta-E=        0.048983649598 Rises=F Damp=F
 Switch densities from cycles 1 and 2 for lowest energy.
 DIIS: error= 3.03D-02 at cycle   2 NSaved=   2.
 NSaved= 2 IEnMin= 1 EnMin= -165.455079350956     IErMin= 1 ErrMin= 1.53D-02
 ErrMax= 3.03D-02 EMaxC= 1.00D+00 BMatC= 8.94D-02 BMatP= 1.53D-02
 IDIUse=1 WtCom= 1.00D+00 WtEn= 0.00D+00
 Coeff-Com:  0.897D+00 0.103D+00
 Coeff:      0.897D+00 0.103D+00
 Gap=     0.565 Goal=   None    Shift=    0.000
 Gap=     0.585 Goal=   None    Shift=    0.000
 RMSDP=1.42D-01 MaxDP=1.05D+00 DE= 4.90D-02 OVMax= 0.00D+00

 Cycle   3  Pass 1  IDiag  1:
 E= -165.462169481072     Delta-E=       -0.056073779713 Rises=F Damp=F
 DIIS: error= 5.23D-03 at cycle   3 NSaved=   3.
 NSaved= 3 IEnMin= 3 EnMin= -165.462169481072     IErMin= 3 ErrMin= 5.23D-03
 ErrMax= 5.23D-03 EMaxC= 1.00D+00 BMatC= 1.78D-03 BMatP= 1.53D-02
 IDIUse=1 WtCom= 1.00D+00 WtEn= 0.00D+00
 Coeff-Com: -0.357D+00-0.364D-01 0.139D+01
 Coeff:     -0.357D+00-0.364D-01 0.139D+01
 Gap=     0.609 Goal=   None    Shift=    0.000
 Gap=     0.595 Goal=   None    Shift=    0.000
 RMSDP=3.49D-03 MaxDP=1.77D-02 DE=-5.61D-02 OVMax= 0.00D+00

 Cycle   4  Pass 1  IDiag  1:
 E= -165.463461899829     Delta-E=       -0.001292418758 Rises=F Damp=F
 DIIS: error= 2.45D-03 at cycle   4 NSaved=   4.
 NSaved= 4 IEnMin= 4 EnMin= -165.463461899829     IErMin= 4 ErrMin= 2.45D-03
 ErrMax= 2.45D-03 EMaxC= 1.00D+00 BMatC= 1.73D-04 BMatP= 1.78D-03
 IDIUse=1 WtCom= 1.00D+00 WtEn= 0.00D+00
 Coeff-Com:  0.150D+00-0.119D-02-0.648D+00 0.150D+01
 Coeff:      0.150D+00-0.119D-02-0.648D+00 0.150D+01
 Gap=     0.612 Goal=   None    Shift=    0.000
 Gap=     0.599 Goal=   None    Shift=    0.000
 RMSDP=1.39D-03 MaxDP=1.39D-02 DE=-1.29D-03 OVMax= 0.00D+00

 Cycle   5  Pass 1  IDiag  1:
 E= -165.463695945115     Delta-E=       -0.000234045285 Rises=F Damp=F
 DIIS: error= 9.51D-04 at cycle   5 NSaved=   5.
 NSaved= 5 IEnMin= 5 EnMin= -165.463695945115     IErMin= 5 ErrMin= 9.51D-04
 ErrMax= 9.51D-04 EMaxC= 1.00D+00 BMatC= 3.48D-05 BMatP= 1.73D-04
 IDIUse=1 WtCom= 1.00D+00 WtEn= 0.00D+00
 Coeff-Com:  0.174D-01 0.193D-02-0.292D-01-0.368D+00 0.138D+01
 Coeff:      0.174D-01 0.193D-02-0.292D-01-0.368D+00 0.138D+01
 Gap=     0.614 Goal=   None    Shift=    0.000
 Gap=     0.601 Goal=   None    Shift=    0.000
 RMSDP=6.60D-04 MaxDP=5.65D-03 DE=-2.34D-04 OVMax= 0.00D+00

 Cycle   6  Pass 1  IDiag  1:
 E= -165.463745315353     Delta-E=       -0.000049370238 Rises=F Damp=F
 DIIS: error= 5.12D-04 at cycle   6 NSaved=   6.
 NSaved= 6 IEnMin= 6 EnMin= -165.463745315353     IErMin= 6 ErrMin= 5.12D-04
 ErrMax= 5.12D-04 EMaxC= 1.00D+00 BMatC= 7.28D-06 BMatP= 3.48D-05
 IDIUse=1 WtCom= 1.00D+00 WtEn= 0.00D+00
 Coeff-Com: -0.284D-01-0.857D-04 0.124D+00-0.259D+00-0.203D+00 0.137D+01
 Coeff:     -0.284D-01-0.857D-04 0.124D+00-0.259D+00-0.203D+00 0.137D+01
 Gap=     0.615 Goal=   None    Shift=    0.000
 Gap=     0.601 Goal=   None    Shift=    0.000
 RMSDP=3.69D-04 MaxDP=2.85D-03 DE=-4.94D-05 OVMax= 0.00D+00

 Cycle   7  Pass 1  IDiag  1:
 E= -165.463758042521     Delta-E=       -0.000012727168 Rises=F Damp=F
 DIIS: error= 1.97D-04 at cycle   7 NSaved=   7.
 NSaved= 7 IEnMin= 7 EnMin= -165.463758042521     IErMin= 7 ErrMin= 1.97D-04
 ErrMax= 1.97D-04 EMaxC= 1.00D+00 BMatC= 1.58D-06 BMatP= 7.28D-06
 IDIUse=1 WtCom= 1.00D+00 WtEn= 0.00D+00
 Coeff-Com:  0.379D-02 0.225D-03-0.287D-01 0.160D+00-0.324D+00-0.244D+00
 Coeff-Com:  0.143D+01
 Coeff:      0.379D-02 0.225D-03-0.287D-01 0.160D+00-0.324D+00-0.244D+00
 Coeff:      0.143D+01
 Gap=     0.615 Goal=   None    Shift=    0.000
 Gap=     0.601 Goal=   None    Shift=    0.000
 RMSDP=1.84D-04 MaxDP=1.06D-03 DE=-1.27D-05 OVMax= 0.00D+00

 Cycle   8  Pass 1  IDiag  1:
 E= -165.463760571023     Delta-E=       -0.000002528501 Rises=F Damp=F
 DIIS: error= 6.70D-05 at cycle   8 NSaved=   8.
 NSaved= 8 IEnMin= 8 EnMin= -165.463760571023     IErMin= 8 ErrMin= 6.70D-05
 ErrMax= 6.70D-05 EMaxC= 1.00D+00 BMatC= 2.05D-07 BMatP= 1.58D-06
 IDIUse=1 WtCom= 1.00D+00 WtEn= 0.00D+00
 Coeff-Com:  0.409D-02 0.970D-04-0.183D-01 0.389D-01 0.199D-01-0.161D+00
 Coeff-Com: -0.698D-02 0.112D+01
 Coeff:      0.409D-02 0.970D-04-0.183D-01 0.389D-01 0.199D-01-0.161D+00
 Coeff:     -0.698D-02 0.112D+01
 Gap=     0.615 Goal=   None    Shift=    0.000
 Gap=     0.601 Goal=   None    Shift=    0.000
 RMSDP=4.76D-05 MaxDP=2.53D-04 DE=-2.53D-06 OVMax= 0.00D+00

 Cycle   9  Pass 1  IDiag  1:
 E= -165.463760877093     Delta-E=       -0.000000306070 Rises=F Damp=F
 DIIS: error= 4.13D-05 at cycle   9 NSaved=   9.
 NSaved= 9 IEnMin= 9 EnMin= -165.463760877093     IErMin= 9 ErrMin= 4.13D-05
 ErrMax= 4.13D-05 EMaxC= 1.00D+00 BMatC= 8.48D-08 BMatP= 2.05D-07
 IDIUse=1 WtCom= 1.00D+00 WtEn= 0.00D+00
 Coeff-Com: -0.188D-02-0.812D-04 0.110D-01-0.415D-01 0.471D-01 0.925D-01
 Coeff-Com: -0.220D+00-0.519D+00 0.163D+01
 Coeff:     -0.188D-02-0.812D-04 0.110D-01-0.415D-01 0.471D-01 0.925D-01
 Coeff:     -0.220D+00-0.519D+00 0.163D+01
 Gap=     0.615 Goal=   None    Shift=    0.000
 Gap=     0.601 Goal=   None    Shift=    0.000
 RMSDP=3.95D-05 MaxDP=2.72D-04 DE=-3.06D-07 OVMax= 0.00D+00

 Cycle  10  Pass 1  IDiag  1:
 E= -165.463761072162     Delta-E=       -0.000000195069 Rises=F Damp=F
 DIIS: error= 3.51D-05 at cycle  10 NSaved=  10.
 NSaved=10 IEnMin=10 EnMin= -165.463761072162     IErMin=10 ErrMin= 3.51D-05
 ErrMax= 3.51D-05 EMaxC= 1.00D+00 BMatC= 4.92D-08 BMatP= 8.48D-08
 IDIUse=1 WtCom= 1.00D+00 WtEn= 0.00D+00
 Coeff-Com:  0.166D-02 0.634D-04-0.106D-01 0.472D-01-0.682D-01-0.943D-01
 Coeff-Com:  0.342D+00 0.331D+00-0.217D+01 0.262D+01
 Coeff:      0.166D-02 0.634D-04-0.106D-01 0.472D-01-0.682D-01-0.943D-01
 Coeff:      0.342D+00 0.331D+00-0.217D+01 0.262D+01
 Gap=     0.615 Goal=   None    Shift=    0.000
 Gap=     0.601 Goal=   None    Shift=    0.000
 RMSDP=4.80D-05 MaxDP=4.14D-04 DE=-1.95D-07 OVMax= 0.00D+00

 Cycle  11  Pass 1  IDiag  1:
 E= -165.463761265818     Delta-E=       -0.000000193656 Rises=F Damp=F
 DIIS: error= 2.75D-05 at cycle  11 NSaved=  11.
 NSaved=11 IEnMin=11 EnMin= -165.463761265818     IErMin=11 ErrMin= 2.75D-05
 ErrMax= 2.75D-05 EMaxC= 1.00D+00 BMatC= 3.12D-08 BMatP= 4.92D-08
 IDIUse=1 WtCom= 1.00D+00 WtEn= 0.00D+00
 Coeff-Com: -0.211D-02-0.956D-04 0.136D-01-0.626D-01 0.930D-01 0.119D+00
 Coeff-Com: -0.480D+00-0.347D+00 0.291D+01-0.433D+01 0.308D+01
 Coeff:     -0.211D-02-0.956D-04 0.136D-01-0.626D-01 0.930D-01 0.119D+00
 Coeff:     -0.480D+00-0.347D+00 0.291D+01-0.433D+01 0.308D+01
 Gap=     0.615 Goal=   None    Shift=    0.000
 Gap=     0.601 Goal=   None    Shift=    0.000
 RMSDP=5.68D-05 MaxDP=5.29D-04 DE=-1.94D-07 OVMax= 0.00D+00

 Cycle  12  Pass 1  IDiag  1:
 E= -165.463761450666     Delta-E=       -0.000000184848 Rises=F Damp=F
 DIIS: error= 2.27D-05 at cycle  12 NSaved=  12.
 NSaved=12 IEnMin=12 EnMin= -165.463761450666     IErMin=12 ErrMin= 2.27D-05
 ErrMax= 2.27D-05 EMaxC= 1.00D+00 BMatC= 2.15D-08 BMatP= 3.12D-08
 IDIUse=1 WtCom= 1.00D+00 WtEn= 0.00D+00
 Coeff-Com:  0.270D-02 0.168D-03-0.182D-01 0.868D-01-0.123D+00-0.171D+00
 Coeff-Com:  0.691D+00 0.480D+00-0.428D+01 0.700D+01-0.679D+01 0.412D+01
 Coeff:      0.270D-02 0.168D-03-0.182D-01 0.868D-01-0.123D+00-0.171D+00
 Coeff:      0.691D+00 0.480D+00-0.428D+01 0.700D+01-0.679D+01 0.412D+01
 Gap=     0.615 Goal=   None    Shift=    0.000
 Gap=     0.601 Goal=   None    Shift=    0.000
 RMSDP=8.71D-05 MaxDP=8.17D-04 DE=-1.85D-07 OVMax= 0.00D+00

 Cycle  13  Pass 1  IDiag  1:
 E= -165.463761665963     Delta-E=       -0.000000215297 Rises=F Damp=F
 DIIS: error= 1.55D-05 at cycle  13 NSaved=  13.
 NSaved=13 IEnMin=13 EnMin= -165.463761665963     IErMin=13 ErrMin= 1.55D-05
 ErrMax= 1.55D-05 EMaxC= 1.00D+00 BMatC= 1.07D-08 BMatP= 2.15D-08
 IDIUse=1 WtCom= 1.00D+00 WtEn= 0.00D+00
 Coeff-Com: -0.183D-02-0.159D-03 0.128D-01-0.619D-01 0.705D-01 0.146D+00
 Coeff-Com: -0.517D+00-0.457D+00 0.342D+01-0.590D+01 0.665D+01-0.570D+01
 Coeff-Com:  0.333D+01
 Coeff:     -0.183D-02-0.159D-03 0.128D-01-0.619D-01 0.705D-01 0.146D+00
 Coeff:     -0.517D+00-0.457D+00 0.342D+01-0.590D+01 0.665D+01-0.570D+01
 Coeff:      0.333D+01
 Gap=     0.615 Goal=   None    Shift=    0.000
 Gap=     0.601 Goal=   None    Shift=    0.000
 RMSDP=1.10D-04 MaxDP=1.02D-03 DE=-2.15D-07 OVMax= 0.00D+00

 Cycle  14  Pass 1  IDiag  1:
 E= -165.463761810830     Delta-E=       -0.000000144866 Rises=F Damp=F
 DIIS: error= 7.12D-06 at cycle  14 NSaved=  14.
 NSaved=14 IEnMin=14 EnMin= -165.463761810830     IErMin=14 ErrMin= 7.12D-06
 ErrMax= 7.12D-06 EMaxC= 1.00D+00 BMatC= 2.36D-09 BMatP= 1.07D-08
 IDIUse=1 WtCom= 1.00D+00 WtEn= 0.00D+00
 Coeff-Com:  0.937D-03 0.114D-03-0.692D-02 0.351D-01-0.275D-01-0.924D-01
 Coeff-Com:  0.288D+00 0.373D+00-0.216D+01 0.389D+01-0.476D+01 0.456D+01
 Coeff-Com: -0.358D+01 0.248D+01
 Coeff:      0.937D-03 0.114D-03-0.692D-02 0.351D-01-0.275D-01-0.924D-01
 Coeff:      0.288D+00 0.373D+00-0.216D+01 0.389D+01-0.476D+01 0.456D+01
 Coeff:     -0.358D+01 0.248D+01
 Gap=     0.615 Goal=   None    Shift=    0.000
 Gap=     0.601 Goal=   None    Shift=    0.000
 RMSDP=4.83D-05 MaxDP=4.24D-04 DE=-1.45D-07 OVMax= 0.00D+00

 Cycle  15  Pass 1  IDiag  1:
 E= -165.463761831155     Delta-E=       -0.000000020326 Rises=F Damp=F
 DIIS: error= 2.18D-06 at cycle  15 NSaved=  15.
 NSaved=15 IEnMin=15 EnMin= -165.463761831155     IErMin=15 ErrMin= 2.18D-06
 ErrMax= 2.18D-06 EMaxC= 1.00D+00 BMatC= 2.85D-10 BMatP= 2.36D-09
 IDIUse=1 WtCom= 1.00D+00 WtEn= 0.00D+00
 Coeff-Com:  0.160D-04-0.140D-04 0.745D-04-0.110D-02-0.705D-02 0.109D-01
 Coeff-Com: -0.118D-01-0.608D-01 0.175D+00-0.415D+00 0.653D+00-0.738D+00
 Coeff-Com:  0.789D+00-0.854D+00 0.146D+01
 Coeff:      0.160D-04-0.140D-04 0.745D-04-0.110D-02-0.705D-02 0.109D-01
 Coeff:     -0.118D-01-0.608D-01 0.175D+00-0.415D+00 0.653D+00-0.738D+00
 Coeff:      0.789D+00-0.854D+00 0.146D+01
 Gap=     0.615 Goal=   None    Shift=    0.000
 Gap=     0.601 Goal=   None    Shift=    0.000
 RMSDP=6.33D-06 MaxDP=5.00D-05 DE=-2.03D-08 OVMax= 0.00D+00

 Cycle  16  Pass 1  IDiag  1:
 E= -165.463761831900     Delta-E=       -0.000000000744 Rises=F Damp=F
 DIIS: error= 1.27D-06 at cycle  16 NSaved=  16.
 NSaved=16 IEnMin=16 EnMin= -165.463761831900     IErMin=16 ErrMin= 1.27D-06
 ErrMax= 1.27D-06 EMaxC= 1.00D+00 BMatC= 6.10D-11 BMatP= 2.85D-10
 IDIUse=1 WtCom= 1.00D+00 WtEn= 0.00D+00
 Coeff-Com:  0.112D-03 0.242D-04-0.906D-03 0.490D-02 0.355D-02-0.207D-01
 Coeff-Com:  0.429D-01 0.900D-01-0.372D+00 0.741D+00-0.962D+00 0.924D+00
 Coeff-Com: -0.864D+00 0.876D+00-0.175D+01 0.229D+01
 Coeff:      0.112D-03 0.242D-04-0.906D-03 0.490D-02 0.355D-02-0.207D-01
 Coeff:      0.429D-01 0.900D-01-0.372D+00 0.741D+00-0.962D+00 0.924D+00
 Coeff:     -0.864D+00 0.876D+00-0.175D+01 0.229D+01
 Gap=     0.615 Goal=   None    Shift=    0.000
 Gap=     0.601 Goal=   None    Shift=    0.000
 RMSDP=2.09D-06 MaxDP=1.40D-05 DE=-7.44D-10 OVMax= 0.00D+00

 Cycle  17  Pass 1  IDiag  1:
 E= -165.463761832051     Delta-E=       -0.000000000152 Rises=F Damp=F
 DIIS: error= 5.09D-07 at cycle  17 NSaved=  17.
 NSaved=17 IEnMin=17 EnMin= -165.463761832051     IErMin=17 ErrMin= 5.09D-07
 ErrMax= 5.09D-07 EMaxC= 1.00D+00 BMatC= 1.92D-11 BMatP= 6.10D-11
 IDIUse=1 WtCom= 1.00D+00 WtEn= 0.00D+00
 Coeff-Com:  0.300D-04-0.409D-05-0.175D-03 0.736D-03-0.466D-02 0.219D-02
 Coeff-Com:  0.526D-02-0.135D-01-0.907D-02-0.188D-01 0.305D-01 0.234D-02
 Coeff-Com:  0.519D-01-0.146D+00 0.675D+00-0.176D+01 0.218D+01
 Coeff:      0.300D-04-0.409D-05-0.175D-03 0.736D-03-0.466D-02 0.219D-02
 Coeff:      0.526D-02-0.135D-01-0.907D-02-0.188D-01 0.305D-01 0.234D-02
 Coeff:      0.519D-01-0.146D+00 0.675D+00-0.176D+01 0.218D+01
 Gap=     0.615 Goal=   None    Shift=    0.000
 Gap=     0.601 Goal=   None    Shift=    0.000
 RMSDP=1.46D-06 MaxDP=7.54D-06 DE=-1.52D-10 OVMax= 0.00D+00

 Cycle  18  Pass 1  IDiag  1:
 E= -165.463761832109     Delta-E=       -0.000000000057 Rises=F Damp=F
 DIIS: error= 9.06D-08 at cycle  18 NSaved=  18.
 NSaved=18 IEnMin=18 EnMin= -165.463761832109     IErMin=18 ErrMin= 9.06D-08
 ErrMax= 9.06D-08 EMaxC= 1.00D+00 BMatC= 1.06D-12 BMatP= 1.92D-11
 IDIUse=1 WtCom= 1.00D+00 WtEn= 0.00D+00
 Coeff-Com: -0.257D-04-0.509D-06 0.175D-03-0.839D-03 0.202D-02 0.808D-03
 Coeff-Com: -0.662D-02-0.215D-02 0.406D-01-0.632D-01 0.839D-01-0.101D+00
 Coeff-Com:  0.680D-01-0.230D-01-0.142D+00 0.650D+00-0.112D+01 0.161D+01
 Coeff:     -0.257D-04-0.509D-06 0.175D-03-0.839D-03 0.202D-02 0.808D-03
 Coeff:     -0.662D-02-0.215D-02 0.406D-01-0.632D-01 0.839D-01-0.101D+00
 Coeff:      0.680D-01-0.230D-01-0.142D+00 0.650D+00-0.112D+01 0.161D+01
 Gap=     0.615 Goal=   None    Shift=    0.000
 Gap=     0.601 Goal=   None    Shift=    0.000
 RMSDP=1.96D-07 MaxDP=1.25D-06 DE=-5.72D-11 OVMax= 0.00D+00

 Cycle  19  Pass 1  IDiag  1:
 E= -165.463761832110     Delta-E=       -0.000000000002 Rises=F Damp=F
 DIIS: error= 3.78D-08 at cycle  19 NSaved=  19.
 NSaved=19 IEnMin=19 EnMin= -165.463761832110     IErMin=19 ErrMin= 3.78D-08
 ErrMax= 3.78D-08 EMaxC= 1.00D+00 BMatC= 1.14D-13 BMatP= 1.06D-12
 IDIUse=1 WtCom= 1.00D+00 WtEn= 0.00D+00
 Coeff-Com:  0.108D-04-0.672D-06-0.687D-04 0.308D-03-0.136D-02 0.311D-03
 Coeff-Com:  0.238D-02-0.205D-02-0.110D-01 0.117D-01-0.212D-01 0.387D-01
 Coeff-Com: -0.207D-01-0.827D-02 0.141D+00-0.529D+00 0.872D+00-0.145D+01
 Coeff-Com:  0.197D+01
 Coeff:      0.108D-04-0.672D-06-0.687D-04 0.308D-03-0.136D-02 0.311D-03
 Coeff:      0.238D-02-0.205D-02-0.110D-01 0.117D-01-0.212D-01 0.387D-01
 Coeff:     -0.207D-01-0.827D-02 0.141D+00-0.529D+00 0.872D+00-0.145D+01
 Coeff:      0.197D+01
 Gap=     0.615 Goal=   None    Shift=    0.000
 Gap=     0.601 Goal=   None    Shift=    0.000
 RMSDP=7.76D-08 MaxDP=4.12D-07 DE=-1.56D-12 OVMax= 0.00D+00

 Cycle  20  Pass 1  IDiag  1:
 E= -165.463761832110     Delta-E=        0.000000000000 Rises=F Damp=F
 DIIS: error= 1.91D-08 at cycle  20 NSaved=  20.
 NSaved=20 IEnMin=20 EnMin= -165.463761832110     IErMin=20 ErrMin= 1.91D-08
 ErrMax= 1.91D-08 EMaxC= 1.00D+00 BMatC= 2.19D-14 BMatP= 1.14D-13
 IDIUse=1 WtCom= 1.00D+00 WtEn= 0.00D+00
 Large coefficients: NSaved= 20 BigCof=    0.00 CofMax=   10.00 Det=-2.46D-15
 Inversion failed.  Reducing to 19 matrices.
 Large coefficients: NSaved= 19 BigCof=    0.00 CofMax=   10.00 Det=-2.59D-15
 Inversion failed.  Reducing to 18 matrices.
 Large coefficients: NSaved= 18 BigCof=    0.00 CofMax=   10.00 Det=-8.19D-15
 Inversion failed.  Reducing to 17 matrices.
 Large coefficients: NSaved= 17 BigCof=    0.00 CofMax=   10.00 Det=-9.50D-15
 Inversion failed.  Reducing to 16 matrices.
 Large coefficients: NSaved= 16 BigCof=    0.00 CofMax=   10.00 Det=-9.54D-15
 Inversion failed.  Reducing to 15 matrices.
 Coeff-Com:  0.552D-05-0.230D-04-0.143D-03 0.588D-03-0.136D-02 0.352D-02
 Coeff-Com: -0.540D-02 0.522D-02-0.476D-02 0.650D-02 0.702D-02-0.298D-01
 Coeff-Com:  0.142D+00-0.520D+00 0.140D+01
 Coeff:      0.552D-05-0.230D-04-0.143D-03 0.588D-03-0.136D-02 0.352D-02
 Coeff:     -0.540D-02 0.522D-02-0.476D-02 0.650D-02 0.702D-02-0.298D-01
 Coeff:      0.142D+00-0.520D+00 0.140D+01
 Gap=     0.615 Goal=   None    Shift=    0.000
 Gap=     0.601 Goal=   None    Shift=    0.000
 RMSDP=3.00D-08 MaxDP=2.09D-07 DE=-1.42D-13 OVMax= 0.00D+00

 Cycle  21  Pass 1  IDiag  1:
 E= -165.463761832110     Delta-E=        0.000000000000 Rises=F Damp=F
 DIIS: error= 6.56D-09 at cycle  21 NSaved=  16.
 NSaved=16 IEnMin=16 EnMin= -165.463761832110     IErMin=16 ErrMin= 6.56D-09
 ErrMax= 6.56D-09 EMaxC= 1.00D+00 BMatC= 3.36D-15 BMatP= 2.19D-14
 IDIUse=1 WtCom= 1.00D+00 WtEn= 0.00D+00
 Large coefficients: NSaved= 16 BigCof=    0.00 CofMax=   10.00 Det=-9.50D-16
 Inversion failed.  Reducing to 15 matrices.
 Coeff-Com:  0.110D-04 0.689D-04-0.302D-03 0.682D-03-0.168D-02 0.240D-02
 Coeff-Com: -0.227D-02 0.222D-02-0.415D-02 0.168D-02 0.632D-03-0.440D-01
 Coeff-Com:  0.268D+00-0.129D+01 0.207D+01
 Coeff:      0.110D-04 0.689D-04-0.302D-03 0.682D-03-0.168D-02 0.240D-02
 Coeff:     -0.227D-02 0.222D-02-0.415D-02 0.168D-02 0.632D-03-0.440D-01
 Coeff:      0.268D+00-0.129D+01 0.207D+01
 Gap=     0.615 Goal=   None    Shift=    0.000
 Gap=     0.601 Goal=   None    Shift=    0.000
 RMSDP=1.08D-08 MaxDP=8.17D-08 DE=-1.99D-13 OVMax= 0.00D+00

 Cycle  22  Pass 1  IDiag  1:
 E= -165.463761832110     Delta-E=        0.000000000000 Rises=F Damp=F
 DIIS: error= 2.68D-09 at cycle  22 NSaved=  16.
 NSaved=16 IEnMin=15 EnMin= -165.463761832110     IErMin=16 ErrMin= 2.68D-09
 ErrMax= 2.68D-09 EMaxC= 1.00D+00 BMatC= 4.67D-16 BMatP= 3.36D-15
 IDIUse=1 WtCom= 1.00D+00 WtEn= 0.00D+00
 Large coefficients: NSaved= 16 BigCof=    0.00 CofMax=   10.00 Det=-8.23D-17
 Inversion failed.  Reducing to 15 matrices.
 Coeff-Com: -0.569D-05 0.116D-04 0.217D-04 0.688D-04-0.160D-03 0.170D-03
 Coeff-Com: -0.249D-03 0.482D-03-0.736D-03 0.291D-02 0.118D-02-0.436D-01
 Coeff-Com:  0.348D+00-0.801D+00 0.149D+01
 Coeff:     -0.569D-05 0.116D-04 0.217D-04 0.688D-04-0.160D-03 0.170D-03
 Coeff:     -0.249D-03 0.482D-03-0.736D-03 0.291D-02 0.118D-02-0.436D-01
 Coeff:      0.348D+00-0.801D+00 0.149D+01
 Gap=     0.615 Goal=   None    Shift=    0.000
 Gap=     0.601 Goal=   None    Shift=    0.000
 RMSDP=3.14D-09 MaxDP=2.35D-08 DE= 1.42D-13 OVMax= 0.00D+00

 SCF Done:  E(UHF) =  -165.463761832     A.U. after   22 cycles
             Convg  =    0.3136D-08             -V/T =  2.0079
 <Sx>= 0.0000 <Sy>= 0.0000 <Sz>= 1.0000 <S**2>= 2.3081 S= 1.0994
 <L.S>= 0.000000000000E+00
 KE= 1.641735487762D+02 PE=-5.004506379492D+02 EE= 1.157246662428D+02
 Annihilation of the first spin contaminant:
 S**2 before annihilation     2.3081,   after     2.0092
 Leave Link  502 at Sun Nov 14 20:00:30 2021, MaxMem=    8388608 cpu:       1.0
 (Enter C:\G09W\l701.exe)
 Compute integral first derivatives.
 ... and contract with generalized density number  0.
 Leave Link  701 at Sun Nov 14 20:00:30 2021, MaxMem=    8388608 cpu:       0.0
 (Enter C:\G09W\l702.exe)
 L702 exits ... SP integral derivatives will be done elsewhere.
 Leave Link  702 at Sun Nov 14 20:00:30 2021, MaxMem=    8388608 cpu:       0.0
 (Enter C:\G09W\l703.exe)
 Compute integral first derivatives, UseDBF=F ICtDFT=           0.
 Integral derivatives from FoFDir, PRISM(SPDF).
 Calling FoFJK, ICntrl=      2127 FMM=F ISym2X=0 I1Cent= 0 IOpClX= 1 NMat=1 NMatS=1 NMatT=0.
 FoFCou: FMM=F IPFlag=           0 FMFlag=      100000 FMFlg1=         800
         NFxFlg=           0 DoJE=F BraDBF=F KetDBF=F FulRan=T
         Omega=  0.000000  0.000000  1.000000  0.000000  0.000000 ICntrl=    2127 IOpCl=  1
         NMat0=    1 NMatS0=    1 NMatT0=    0 NMatD0=    1 NMtDS0=    0 NMtDT0=    0
         I1Cent=           0 NGrid=           0.
 Symmetry not used in FoFCou.
 Leave Link  703 at Sun Nov 14 20:00:30 2021, MaxMem=    8388608 cpu:       0.0
 (Enter C:\G09W\l716.exe)
 Dipole        = 4.34746704D-01 5.04808736D-01 5.72686964D-03
 ***** Axes restored to original set *****
 -------------------------------------------------------------------
 Center     Atomic                   Forces (Hartrees/Bohr)
 Number     Number              X              Y              Z
 -------------------------------------------------------------------
      1        1          -0.002202662    0.000044830   -0.003160708
      2        7          -0.009940742   -0.000034670   -0.001613790
      3        6           0.010652958   -0.000005062   -0.000609878
      4        8           0.001490446   -0.000005098    0.005384377
 -------------------------------------------------------------------
 Cartesian Forces:  Max     0.010652958 RMS     0.004666710
 -----------------------------------------------------------------------------------------------
                       Internal Coordinate Forces (Hartree/Bohr or radian)
  Cent   Atom   N1       Length/X         N2         Alpha/Y        N3         Beta/Z          J
 -----------------------------------------------------------------------------------------------
      1  H 
      2  N        1   0.003161(     1)
      3  C        2   0.012977(     2)      1   0.004379(     4)
      4  O        3   0.005578(     3)      2  -0.000760(     5)      1  -0.000086(     6)     0
 -----------------------------------------------------------------------------------------------
 Internal  Forces:  Max     0.012976594 RMS     0.006181345
 Leave Link  716 at Sun Nov 14 20:00:30 2021, MaxMem=    8388608 cpu:       0.0
 (Enter C:\G09W\l103.exe)

 GradGradGradGradGradGradGradGradGradGradGradGradGradGradGradGradGradGrad
 Berny optimization.
 Search for a local minimum.
 Step number   2 out of a maximum of   20
 All quantities printed in internal units (Hartrees-Bohrs-Radians)
 Update second derivatives using D2CorN and points    1    2
 DE= -7.17D-03 DEPred=-6.86D-03 R= 1.04D+00
 SS=  1.41D+00  RLast= 2.00D-01 DXNew= 5.0454D-01 5.9947D-01
 Trust test= 1.04D+00 RLast= 2.00D-01 DXMaxT set to 5.05D-01
 The second derivative matrix:
                          B1        B2        B3        A1        A2
           B1           0.39743
           B2          -0.00324   0.50200
           B3          -0.00203  -0.01178   0.88606
           A1           0.00139   0.00137  -0.00052   0.16480
           A2           0.00675   0.02464   0.00981   0.01138   0.25663
           D1           0.00096   0.00350   0.00139   0.00163   0.00100
                          D1
           D1           0.02201
 ITU=  1  0
     Eigenvalues ---    0.02196   0.16341   0.25501   0.39772   0.50426
     Eigenvalues ---    0.88656
 RFO step:  Lambda=-4.56648221D-04 EMin= 2.19566705D-02
 Quartic linear search produced a step of  0.10109.
 Variable       Old X    -DE/DX   Delta X   Delta X   Delta X     New X
                                 (Linear)    (Quad)   (Total)
    B1        1.98814   0.00316   0.00024   0.00840   0.00864   1.99678
    B2        2.64872   0.01298   0.00745   0.02009   0.02754   2.67625
    B3        2.38107   0.00558   0.00486   0.00219   0.00705   2.38812
    A1        1.84052   0.00438  -0.00396   0.03231   0.02836   1.86888
    A2        2.16778  -0.00076  -0.01752   0.01071  -0.00681   2.16097
    D1        3.15176  -0.00009  -0.00250  -0.00731  -0.00981   3.14195
         Item               Value     Threshold  Converged?
 Maximum Force            0.012977     0.000450     NO 
 RMS     Force            0.006181     0.000300     NO 
 Maximum Displacement     0.028356     0.001800     NO 
 RMS     Displacement     0.017460     0.001200     NO 
 Predicted change in Energy=-2.647920D-04
 GradGradGradGradGradGradGradGradGradGradGradGradGradGradGradGradGradGrad

 Leave Link  103 at Sun Nov 14 20:00:31 2021, MaxMem=    8388608 cpu:       0.0
 (Enter C:\G09W\l202.exe)
 ---------------------------------------------------------------------------------------------------
                            Z-MATRIX (ANGSTROMS AND DEGREES)
   CD    Cent   Atom    N1       Length/X        N2       Alpha/Y        N3        Beta/Z          J
 ---------------------------------------------------------------------------------------------------
      1      1  H 
      2      2  N        1   1.056653(     1)
      3      3  C        2   1.416212(     2)      1  107.079(     4)
      4      4  O        3   1.263738(     3)      2  123.815(     5)      1  180.021(     6)      0
 ---------------------------------------------------------------------------------------------------
                         Z-Matrix orientation:                         
 ---------------------------------------------------------------------
 Center     Atomic      Atomic             Coordinates (Angstroms)
 Number     Number       Type             X           Y           Z
 ---------------------------------------------------------------------
      1          1           0        0.000000    0.000000    0.000000
      2          7           0        0.000000    0.000000    1.056653
      3          6           0        1.353760    0.000000    1.472575
      4          8           0        1.717663   -0.000378    2.682785
 ---------------------------------------------------------------------
                    Distance matrix (angstroms):
                    1          2          3          4
     1  H    0.000000
     2  N    1.056653   0.000000
     3  C    2.000286   1.416212   0.000000
     4  O    3.185546   2.365306   1.263738   0.000000
 Stoichiometry    CHNO(3)
 Framework group  C1[X(CHNO)]
 Deg. of freedom     6
 Full point group                 C1      NOp   1
 RotChk:  IX=0 Diff= 4.00D-02
 Largest Abelian subgroup         C1      NOp   1
 Largest concise Abelian subgroup C1      NOp   1
                         Standard orientation:                         
 ---------------------------------------------------------------------
 Center     Atomic      Atomic             Coordinates (Angstroms)
 Number     Number       Type             X           Y           Z
 ---------------------------------------------------------------------
      1          1           0        1.924483    0.468711    0.000252
      2          7           0        1.161872   -0.262685   -0.000027
      3          6           0       -0.075357    0.426461   -0.000051
      4          8           0       -1.200681   -0.148586    0.000030
 ---------------------------------------------------------------------
 Rotational constants (GHZ):    136.6571436     11.0588383     10.2309124
 Leave Link  202 at Sun Nov 14 20:00:31 2021, MaxMem=    8388608 cpu:       0.0
 (Enter C:\G09W\l301.exe)
 Standard basis: STO-3G (5D, 7F)
 Ernie: Thresh=  0.10000D-02 Tol=  0.10000D-05 Strict=F.
 There are    16 symmetry adapted basis functions of A   symmetry.
 Integral buffers will be    262144 words long.
 Raffenetti 2 integral format.
 Two-electron integral symmetry is turned on.
    16 basis functions,    48 primitive gaussians,    16 cartesian basis functions
    12 alpha electrons       10 beta electrons
       nuclear repulsion energy        54.7435515393 Hartrees.
 IExCor=    0 DFT=F Ex=HF Corr=None ExCW=0 ScaHFX=  1.000000
 ScaDFX=  1.000000  1.000000  1.000000  1.000000 ScalE2=  1.000000  1.000000
 IRadAn=      0 IRanWt=     -1 IRanGd=            0 ICorTp=0
 NAtoms=    4 NActive=    4 NUniq=    4 SFac= 1.00D+00 NAtFMM=   60 NAOKFM=F Big=F
 Leave Link  301 at Sun Nov 14 20:00:31 2021, MaxMem=    8388608 cpu:       0.0
 (Enter C:\G09W\l302.exe)
 NPDir=0 NMtPBC=     1 NCelOv=     1 NCel=       1 NClECP=     1 NCelD=      1
         NCelK=      1 NCelE2=     1 NClLst=     1 CellRange=     0.0.
 One-electron integrals computed using PRISM.
 NBasis=    16 RedAO= T  NBF=    16
 NBsUse=    16 1.00D-06 NBFU=    16
 Leave Link  302 at Sun Nov 14 20:00:31 2021, MaxMem=    8388608 cpu:       0.0
 (Enter C:\G09W\l303.exe)
 DipDrv:  MaxL=1.
 Leave Link  303 at Sun Nov 14 20:00:32 2021, MaxMem=    8388608 cpu:       0.0
 (Enter C:\G09W\l401.exe)
 Initial guess read from the read-write file.
 B after Tr=     0.000000    0.000000    0.000000
         Rot=    1.000000    0.000000    0.000000    0.000000 Ang=   0.00 deg.
 Guess basis will be translated and rotated to current coordinates.
 Initial guess orbital symmetries:
 Alpha Orbitals:
       Occupied  (A) (A) (A) (A) (A) (A) (A) (A) (A) (A) (A) (A)
       Virtual   (A) (A) (A) (A)
 Beta  Orbitals:
       Occupied  (A) (A) (A) (A) (A) (A) (A) (A) (A) (A)
       Virtual   (A) (A) (A) (A) (A) (A)
 The electronic state of the initial guess is 3-A.
 Initial guess <Sx>= 0.0000 <Sy>= 0.0000 <Sz>= 1.0000 <S**2>= 2.3106 S= 1.1002
 Generating alternative initial guess.
 Harris functional with IExCor=  205 diagonalized for initial guess.
 ExpMin= 1.69D-01 ExpMax= 1.31D+02 ExpMxC= 1.31D+02 IAcc=1 IRadAn=         1 AccDes= 0.00D+00
 HarFok:  IExCor=  205 AccDes= 0.00D+00 IRadAn=         1 IDoV= 1
 ScaDFX=  1.000000  1.000000  1.000000  1.000000
[...]
     3   6     0.06   0.17   0.00     0.13   0.18   0.00     0.00   0.00   0.00
     4   8    -0.20  -0.10   0.00    -0.09  -0.07   0.00     0.00   0.00   0.00

 -------------------
 - Thermochemistry -
 -------------------
 Temperature   298.150 Kelvin.  Pressure   1.00000 Atm.
 Atom     1 has atomic number  1 and mass   1.00783
 Atom     2 has atomic number  7 and mass  14.00307
 Atom     3 has atomic number  6 and mass  12.00000
 Atom     4 has atomic number  8 and mass  15.99491
 Molecular mass:    43.00581 amu.
 Principal axes and moments of inertia in atomic units:
                           1         2         3
     Eigenvalues --    13.43809 163.03963 176.47772
           X            0.99974   0.02261  -0.00002
           Y           -0.02261   0.99974  -0.00007
           Z            0.00002   0.00007   1.00000
 This molecule is an asymmetric top.
 Rotational symmetry number  1.
 Rotational temperatures (Kelvin)      6.44540     0.53124     0.49079
 Rotational constants (GHZ):         134.30042    11.06934    10.22645
 Zero-point vibrational energy      48662.9 (Joules/Mol)
                                   11.63070 (Kcal/Mol)
 Warning -- explicit consideration of   2 degrees of freedom as
           vibrations may cause significant error
 Vibrational temperatures:    360.57   830.41  1086.78  1757.58  2157.24
          (Kelvin)           5512.99
 
 Zero-point correction=                           0.018535 (Hartree/Particle)
 Thermal correction to Energy=                    0.022138
 Thermal correction to Enthalpy=                  0.023083
 Thermal correction to Gibbs Free Energy=        -0.006606
 Sum of electronic and zero-point Energies=           -165.445572
 Sum of electronic and thermal Energies=              -165.441968
 Sum of electronic and thermal Enthalpies=            -165.441024
 Sum of electronic and thermal Free Energies=         -165.470713
 
                     E (Thermal)             CV                S
                      KCal/Mol        Cal/Mol-Kelvin    Cal/Mol-Kelvin
 Total                   13.892              9.797             62.485
 Electronic               0.000              0.000              2.183
 Translational            0.889              2.981             37.203
 Rotational               0.889              2.981             20.586
 Vibrational             12.115              3.836              2.513
 Vibration     1          0.663              1.762              1.726
 Vibration     2          0.934              1.081              0.491
                       Q            Log10(Q)             Ln(Q)
 Total Bot       0.109293D+04          3.038592          6.996617
 Total V=0       0.366391D+12         11.563945         26.626968
 Vib (Bot)       0.466894D-08         -8.330782        -19.182334
 Vib (Bot)    1  0.778555D+00         -0.108711         -0.250315
 Vib (Bot)    2  0.264768D+00         -0.577135         -1.328902
 Vib (V=0)       0.156521D+01          0.194571          0.448017
 Vib (V=0)    1  0.142528D+01          0.153901          0.354370
 Vib (V=0)    2  0.106578D+01          0.027666          0.063703
 Electronic      0.300000D+01          0.477121          1.098612
 Translational   0.110853D+08          7.044746         16.221127
 Rotational      0.703893D+04          3.847507          8.859212
 
                                                                  T1
                                                             IR Spectrum
 
     3                                                                             1        1                                        
     8                                                                             4        2              7     5          2        
     3                                                                             9        2              5     7          5        
     2                                                                             9        2              5     7          1        
 
     X                                                                             X        X              X     X          X        
                                                                                   X                                        X        
                                                                                   X                                        X        
                                                                                   X                                        X        
                                                                                   X                                        X        
                                                                                   X                                        X        
                                                                                   X                                        X        
                                                                                   X                                        X        
                                                                                   X                                        X        
                                                                                   X                                        X        
                                                                                   X                                        X        
                                                                                   X                                        X        
                                                                                   X                                        X        
                                                                                                                            X        
                                                                                                                            X        
                                                                                                                            X        
                                                                                                                            X        
                                                                                                                            X        
                                                                                                                            X        
                                                                                                                            X        
 
 
                                                                  T1
                                                            Raman Spectrum
 
     3                                                                             1        1                                        
     8                                                                             4        2              7     5          2        
     3                                                                             9        2              5     7          5        
     2                                                                             9        2              5     7          1        
 
     X                                                                             X        X              X     X          X        
     X                                                                             X        X              X                X        
     X                                                                             X        X                               X        
     X                                                                             X        X                               X        
     X                                                                                      X                                        
     X                                                                                                                               
     X                                                                                                                               
     X                                                                                                                               
     X                                                                                                                               
     X                                                                                                                               
     X                                                                                                                               
     X                                                                                                                               
     X                                                                                                                               
     X                                                                                                                               
     X                                                                                                                               
     X                                                                                                                               
     X                                                                                                                               
     X                                                                                                                               
     X                                                                                                                               
     X                                                                                                                               
 
 ***** Axes restored to original set *****
 -------------------------------------------------------------------
 Center     Atomic                   Forces (Hartrees/Bohr)
 Number     Number              X              Y              Z
 -------------------------------------------------------------------
      1        1           0.000010628   -0.000002506   -0.000022215
      2        7          -0.000018720    0.000001843    0.000049676
      3        6           0.000019033    0.000003071   -0.000071182
      4        8          -0.000010941   -0.000002409    0.000043721
 -------------------------------------------------------------------
 Cartesian Forces:  Max     0.000071182 RMS     0.000030152
 -----------------------------------------------------------------------------------------------
                       Internal Coordinate Forces (Hartree/Bohr or radian)
  Cent   Atom   N1       Length/X         N2         Alpha/Y        N3         Beta/Z          J
 -----------------------------------------------------------------------------------------------
      1  H 
      2  N        1   0.000022(     1)
      3  C        2   0.000000(     2)      1  -0.000021(     4)
      4  O        3   0.000038(     3)      2  -0.000056(     5)      1   0.000005(     6)     0
 -----------------------------------------------------------------------------------------------
 Internal  Forces:  Max     0.000056249 RMS     0.000030543
 Force constants in Cartesian coordinates: 
                1             2             3             4             5 
      1  0.634393D-01
      2 -0.378490D-05  0.194781D-02
      3  0.125456D-01  0.000000D+00  0.522379D+00
      4 -0.471600D-01  0.105700D-04 -0.329772D-01  0.259823D+00
      5  0.943262D-05 -0.141427D-02  0.230186D-05 -0.754131D-05  0.101726D-02
      6  0.493992D-01 -0.167715D-04 -0.515030D+00  0.580292D-01  0.447662D-04
      7 -0.562529D-02 -0.174187D-04  0.248300D-01 -0.148446D+00  0.379488D-04
      8 -0.317601D-05 -0.244146D-02  0.000000D+00  0.100208D-03  0.180019D-02
      9 -0.603077D-01  0.430636D-04 -0.614629D-02  0.169891D+00 -0.644534D-04
     10 -0.106540D-01  0.106336D-04 -0.439841D-02 -0.642172D-01 -0.398401D-04
     11 -0.247171D-05  0.190792D-02 -0.175638D-05 -0.103237D-03 -0.140319D-02
     12 -0.163713D-02 -0.257207D-04 -0.120313D-02 -0.194942D+00  0.173853D-04
                6             7             8             9            10 
      6  0.633441D+00
      7 -0.309201D-01  0.184376D+00
      8  0.100995D-04 -0.437808D-04  0.298031D-02
      9 -0.615261D-01 -0.488678D-01  0.208916D-03  0.445427D+00
     10 -0.765083D-01 -0.303046D-01 -0.532510D-04 -0.607150D-01  0.105176D+00
     11 -0.380943D-04  0.232508D-04 -0.233904D-02 -0.187526D-03  0.824574D-04
     12 -0.568857D-01  0.549579D-01 -0.219041D-03 -0.377754D+00  0.141622D+00
               11            12 
     11  0.183431D-02
     12  0.227377D-03  0.435843D+00
 Force constants in internal coordinates: 
                1             2             3             4             5 
      1  0.522379D+00
      2 -0.176838D-01  0.266689D+00
      3  0.248856D-02  0.223863D+00  0.487368D+00
      4  0.250528D-01  0.647131D-01  0.960459D-02  0.252808D+00
      5  0.904365D-02  0.636503D-01  0.451922D-01  0.455681D-01  0.300624D+00
      6 -0.350841D-05  0.355015D-05  0.388260D-04 -0.131920D-04 -0.786600D-04
                6 
      6  0.723979D-02
 Leave Link  716 at Sun Nov 14 20:00:56 2021, MaxMem=    8388608 cpu:       0.0
 (Enter C:\G09W\l103.exe)

 GradGradGradGradGradGradGradGradGradGradGradGradGradGradGradGradGradGrad
 Berny optimization.
 Search for a local minimum.
 Step number   1 out of a maximum of    2
 All quantities printed in internal units (Hartrees-Bohrs-Radians)
 Second derivative matrix not updated -- analytic derivatives used.
 The second derivative matrix:
                          B1        B2        B3        A1        A2
           B1           0.52238
           B2          -0.01768   0.26669
           B3           0.00249   0.22386   0.48737
           A1           0.02505   0.06471   0.00960   0.25281
           A2           0.00904   0.06365   0.04519   0.04557   0.30062
           D1           0.00000   0.00000   0.00004  -0.00001  -0.00008
                          D1
           D1           0.00724
 ITU=  0
     Eigenvalues ---    0.00724   0.10686   0.23020   0.31834   0.52571
     Eigenvalues ---    0.64875
 Angle between quadratic step and forces=  67.30 degrees.
 Linear search not attempted -- first point.
 Variable       Old X    -DE/DX   Delta X   Delta X   Delta X     New X
                                 (Linear)    (Quad)   (Total)
    B1        1.99608   0.00002   0.00000   0.00005   0.00005   1.99613
    B2        2.70618   0.00000   0.00000  -0.00003  -0.00003   2.70615
    B3        2.36678   0.00004   0.00000   0.00011   0.00011   2.36689
    A1        1.84456  -0.00002   0.00000  -0.00005  -0.00005   1.84451
    A2        2.15482  -0.00006   0.00000  -0.00019  -0.00019   2.15463
    D1        3.14093   0.00000   0.00000   0.00066   0.00066   3.14159
         Item               Value     Threshold  Converged?
 Maximum Force            0.000056     0.000450     YES
 RMS     Force            0.000031     0.000300     YES
 Maximum Displacement     0.000662     0.001800     YES
 RMS     Displacement     0.000287     0.001200     YES
 Predicted change in Energy=-1.013913D-08
 Optimization completed.
    -- Stationary point found.
                       ----------------------------
                       !   Optimized Parameters   !
                       ! (Angstroms and Degrees)  !
 ----------------------                            ----------------------
 !      Name          Value   Derivative information (Atomic Units)     !
 ------------------------------------------------------------------------
 !       B1          1.0563   -DE/DX =    0.0                           !
 !       B2          1.432    -DE/DX =    0.0                           !
 !       B3          1.2524   -DE/DX =    0.0                           !
 !       A1        105.6853   -DE/DX =    0.0                           !
 !       A2        123.462    -DE/DX =   -0.0001                        !
 !       D1        179.9619   -DE/DX =    0.0                           !
 ------------------------------------------------------------------------
 GradGradGradGradGradGradGradGradGradGradGradGradGradGradGradGradGradGrad

 Leave Link  103 at Sun Nov 14 20:00:56 2021, MaxMem=    8388608 cpu:       0.0
 (Enter C:\G09W\l9999.exe)
 1|1|UNPC-DESKTOP-RNC6JTU|Freq|UHF|STO-3G|C1H1N1O1(3)|BNULK|14-Nov-2021
 |1||#P Geom=AllCheck Guess=TCheck SCRF=Check GenChk UHF/STO-3G Freq||T
 1||0,3|H|N,1,B1|C,2,B2,1,A1|O,3,B3,2,A2,1,D1,0||B1=1.05628145|B2=1.432
 04769|B3=1.25244738|A1=105.6852775|A2=123.46201289|D1=179.96189487||Ve
 rsion=IA32W-G09RevC.01|State=3-A|HF=-165.4641066|S2=2.303334|S2-1=0.|S
 2A=2.01041|RMSD=3.964e-010|RMSF=3.015e-005|ZeroPoint=0.0185347|Thermal
 =0.0221384|Dipole=0.0307446,0.0000381,-0.6713985|DipoleDeriv=0.236341,
 0.000025,0.126338,-0.0000691,0.3705303,0.0001273,0.0639036,0.0000505,-
 0.0349348,0.0120073,0.0000605,-0.1090876,0.0001415,-0.3742618,-0.00011
 94,0.0468498,0.0001626,0.0916709,-0.198903,-0.0000972,-0.1114824,-0.00
 01918,-0.025339,-0.000208,-0.3807006,-0.0008608,-0.2313019,-0.0494453,
 0.0000117,0.0942321,0.0001194,0.0290705,0.0002001,0.2699472,0.0006477,
 0.1745658|Polar=10.9847054,0.0003546,7.6649922,5.5627137,0.0051969,15.
 0240543|PolarDeriv=-1.9424593,-0.0003657,-0.4278179,-2.2190619,0.00024
 34,0.8012968,-0.0002325,-2.0426393,-0.0054714,-0.0012046,1.1613846,0.0
 026467,-0.8264966,-0.0010295,1.4297572,-2.1558557,0.0011502,-7.25502,-
 4.3462507,-0.0046883,0.613126,1.4606464,-0.0034578,-3.7352592,0.000008
 9,0.8430931,0.0067328,0.0013642,-2.1991603,-0.0017358,1.1223554,-0.002
 7124,0.8291937,-0.7942428,0.002267,5.2760747,4.283527,0.0036537,0.0768
 669,-2.3355374,0.0061171,5.6887969,-0.0016295,0.9299602,-0.0062928,0.0
 008265,-2.9189968,0.0008113,-3.9533657,0.0139332,-10.5818643,2.6292615
 ,-0.0097573,1.5529903,2.005183,0.0014003,-0.2621751,3.0939529,-0.00290
 26,-2.7548345,0.001853,0.269586,0.0050315,-0.0009861,3.9567725,-0.0017
 222,3.657507,-0.0101912,8.3229134,0.3208369,0.0063401,0.425955|HyperPo
 lar=52.1053966,0.0071011,27.9067604,0.077252,8.1611939,0.0330407,-36.9
 72074,3.7434297,-0.028934,-36.5079411|PG=C01 [X(C1H1N1O1)]|NImag=0||0.
 06343927,-0.00000378,0.00194781,0.01254564,-0.00000057,0.52237896,-0.0
 4715996,0.00001057,-0.03297723,0.25982306,0.00000943,-0.00141427,0.000
 00230,-0.00000754,0.00101726,0.04939922,-0.00001677,-0.51502954,0.0580
 2915,0.00004477,0.63344130,-0.00562529,-0.00001742,0.02483000,-0.14844
 591,0.00003795,-0.03092006,0.18437584,-0.00000318,-0.00244146,0.000000
 03,0.00010021,0.00180019,0.00001010,-0.00004378,0.00298031,-0.06030773
 ,0.00004306,-0.00614629,0.16989051,-0.00006445,-0.06152609,-0.04886780
 ,0.00020892,0.44542660,-0.01065402,0.00001063,-0.00439841,-0.06421718,
 -0.00003984,-0.07650830,-0.03030464,-0.00005325,-0.06071498,0.10517584
 ,-0.00000247,0.00190792,-0.00000176,-0.00010324,-0.00140319,-0.0000380
 9,0.00002325,-0.00233904,-0.00018753,0.00008246,0.00183431,-0.00163713
 ,-0.00002572,-0.00120313,-0.19494243,0.00001739,-0.05688567,0.05495787
 ,-0.00021904,-0.37775423,0.14162169,0.00022738,0.43584302||-0.00001063
 ,0.00000251,0.00002221,0.00001872,-0.00000184,-0.00004968,-0.00001903,
 -0.00000307,0.00007118,0.00001094,0.00000241,-0.00004372|||@


 KEEP CLOSE TO NATURES HEART, YOURSELF;
 AND BREAK CLEAR AWAY, ONCE IN A WHILE, AND
 CLIMB A MOUNTAIN OR SPEND A WEEK IN THE
 WOODS.  WASH YOUR SPIRIT CLEAN...
                                         -- JOHN MUIR
 Job cpu time:  0 days  0 hours  0 minutes  5.0 seconds.
 File lengths (MBytes):  RWF=      5 Int=      0 D2E=      0 Chk=      1 Scr=      1
 Normal termination of Gaussian 09 at Sun Nov 14 20:00:57 2021.
