 Entering Gaussian System, Link 0=g09
 Input=HNCO(S0).gjf
 Output=D:\ChemKun\test\HNCO(S0).out
 Initial command:
 C:\G09W\l1.exe .\gxx.inp D:\ChemKun\test\HNCO(S0).out /scrdir=.\
 Entering Link 1 = C:\G09W\l1.exe PID=      7848.
  
 Copyright (c) 1988,1990,1992,1993,1995,1998,2003,2009,2011,
            Gaussian, Inc.  All Rights Reserved.
  
 This is part of the Gaussian(R) 09 program.  It is based on
 the Gaussian(R) 03 system (copyright 2003, Gaussian, Inc.),
 the Gaussian(R) 98 system (copyright 1998, Gaussian, Inc.),
 the Gaussian(R) 94 system (copyright 1995, Gaussian, Inc.),
 the Gaussian 92(TM) system (copyright 1992, Gaussian, Inc.),
 the Gaussian 90(TM) system (copyright 1990, Gaussian, Inc.),
 the Gaussian 88(TM) system (copyright 1988, Gaussian, Inc.),
 the Gaussian 86(TM) system (copyright 1986, Carnegie Mellon
 University), and the Gaussian 82(TM) system (copyright 1983,
 Carnegie Mellon University). Gaussian is a federally registered
 trademark of Gaussian, Inc.
  
 This software contains proprietary and confidential information,
 including trade secrets, belonging to Gaussian, Inc.
  
 This software is provided under written license and may be
 used, copied, transmitted, or stored only in accord with that
 written license.
  
 The following legend is applicable only to US Government
 contracts under FAR:
  
                    RESTRICTED RIGHTS LEGEND
  
 Use, reproduction and disclosure by the US Government is
 subject to restrictions as set forth in subparagraphs (a)
 and (c) of the Commercial Computer Software - Restricted
 Rights clause in FAR 52.227-19.
  
 Gaussian, Inc.
 340 Quinnipiac St., Bldg. 40, Wallingford CT 06492
  
  
 ---------------------------------------------------------------
 Warning -- This program may not be used in any manner that
 competes with the business of Gaussian, Inc. or will provide
 assistance to any competitor of Gaussian, Inc.  The licensee
 of this program is prohibited from giving any competitor of
 Gaussian, Inc. access to this program.  By using this program,
 the user acknowledges that Gaussian, Inc. is engaged in the
 business of creating and licensing software in the field of
 computational chemistry and represents and warrants to the
 licensee that it is not a competitor of Gaussian, Inc. and that
 it will not use this program in any manner prohibited above.
 ---------------------------------------------------------------
  

 Cite this work as:
 Gaussian 09, Revision C.01,
 M. J. Frisch, G. W. Trucks, H. B. Schlegel, G. E. Scuseria, 
 M. A. Robb, J. R. Cheeseman, G. Scalmani, V. Barone, B. Mennucci, 
 G. A. Petersson, H. Nakatsuji, M. Caricato, X. Li, H. P. Hratchian, 
 A. F. Izmaylov, J. Bloino, G. Zheng, J. L. Sonnenberg, M. Hada, 
 M. Ehara, K. Toyota, R. Fukuda, J. Hasegawa, M. Ishida, T. Nakajima, 
 Y. Honda, O. Kitao, H. Nakai, T. Vreven, J. A. Montgomery, Jr., 
 J. E. Peralta, F. Ogliaro, M. Bearpark, J. J. Heyd, E. Brothers, 
 K. N. Kudin, V. N. Staroverov, T. Keith, R. Kobayashi, J. Normand, 
 K. Raghavachari, A. Rendell, J. C. Burant, S. S. Iyengar, J. Tomasi, 
 M. Cossi, N. Rega, J. M. Millam, M. Klene, J. E. Knox, J. B. Cross, 
 V. Bakken, C. Adamo, J. Jaramillo, R. Gomperts, R. E. Stratmann, 
 O. Yazyev, A. J. Austin, R. Cammi, C. Pomelli, J. W. Ochterski, 
 R. L. Martin, K. Morokuma, V. G. Zakrzewski, G. A. Voth, 
 P. Salvador, J. J. Dannenberg, S. Dapprich, A. D. Daniels, 
 O. Farkas, J. B. Foresman, J. V. Ortiz, J. Cioslowski, 
 and D. J. Fox, Gaussian, Inc., Wallingford CT, 2010.
 
 ******************************************
 Gaussian 09:  IA32W-G09RevC.01 23-Sep-2011
                13-Jul-2021 
 ******************************************
 %mem=64mb
 %chk=LiuKun2
 ---------------------------------------------------------
 #p freq=noraman hf/sto-3g scf=maxcycle=999 opt iop(1/8=5)
 ---------------------------------------------------------
 1/8=5,18=20,19=15,38=1/1,3;
 2/9=110,12=2,17=6,18=5,40=1/2;
 3/6=3,11=9,16=1,25=1,30=1,71=1/1,2,3;
 4//1;
 5/5=2,7=999,38=5/2;
 6/7=2,8=2,9=2,10=2,28=1/1;
 7//1,2,3,16;
 1/8=5,18=20,19=15/3(2);
 2/9=110/2;
 99//99;
 2/9=110/2;
 3/6=3,11=9,16=1,25=1,30=1,71=1/1,2,3;
 4/5=5,16=3/1;
 5/5=2,7=999,38=5/2;
 7//1,2,3,16;
 1/8=5,18=20,19=15/3(-5);
 2/9=110/2;
 6/7=2,8=2,9=2,10=2,19=2,28=1/1;
 99/9=1/99;
 Leave Link    1 at Tue Jul 13 01:14:31 2021, MaxMem=    8388608 cpu:       0.0
 (Enter C:\G09W\l101.exe)
 --
 T1
 --
 Charge =  0 Multiplicity = 1
 Symbolic Z-Matrix:
 H                     0.        0.        0. 
 N                     1.00641   0.        0. 
 C                     1.47292   1.27252   0. 
 O                     2.57218   1.64849   0. 
 
 NAtoms=      4 NQM=        0 NQMF=       0 NMMI=      4 NMMIF=      0
                NMic=       0 NMicF=      0.
                    Isotopes and Nuclear Properties:
 (Nuclear quadrupole moments (NQMom) in fm**2, nuclear magnetic moments (NMagM)
  in nuclear magnetons)

  Atom         1           2           3           4
 IAtWgt=           1          14          12          16
 AtmWgt=   1.0078250  14.0030740  12.0000000  15.9949146
 NucSpn=           1           2           0           0
 AtZEff=   0.0000000   0.0000000   0.0000000   0.0000000
 NQMom=    0.0000000   2.0440000   0.0000000   0.0000000
 NMagM=    2.7928460   0.4037610   0.0000000   0.0000000
 Leave Link  101 at Tue Jul 13 01:14:31 2021, MaxMem=    8388608 cpu:       0.0
 (Enter C:\G09W\l103.exe)

 GradGradGradGradGradGradGradGradGradGradGradGradGradGradGradGradGradGrad
 Berny optimization.
 Initialization pass.
                           ----------------------------
                           !    Initial Parameters    !
                           ! (Angstroms and Degrees)  !
 --------------------------                            --------------------------
 ! Name  Definition              Value          Derivative Info.                !
 --------------------------------------------------------------------------------
 ! R1    R(1,2)                  1.0064         estimate D2E/DX2                !
 ! R2    R(2,3)                  1.3553         estimate D2E/DX2                !
 ! R3    R(3,4)                  1.1618         estimate D2E/DX2                !
 ! A1    A(1,2,3)              110.1331         estimate D2E/DX2                !
 ! A2    A(2,3,4)              129.0149         estimate D2E/DX2                !
 ! D1    D(1,2,3,4)            180.0            estimate D2E/DX2                !
 --------------------------------------------------------------------------------
 Trust Radius=5.00D-02 FncErr=1.00D-07 GrdErr=1.00D-07
 Number of steps in this run=     20 maximum allowed number of steps=    100.
 GradGradGradGradGradGradGradGradGradGradGradGradGradGradGradGradGradGrad

 Leave Link  103 at Tue Jul 13 01:14:31 2021, MaxMem=    8388608 cpu:       0.0
 (Enter C:\G09W\l202.exe)
                          Input orientation:                          
 ---------------------------------------------------------------------
 Center     Atomic      Atomic             Coordinates (Angstroms)
 Number     Number       Type             X           Y           Z
 ---------------------------------------------------------------------
      1          1           0        0.000000    0.000000    0.000000
      2          7           0        1.006410    0.000000    0.000000
      3          6           0        1.472920    1.272522    0.000000
      4          8           0        2.572185    1.648494    0.000000
 ---------------------------------------------------------------------
                    Distance matrix (angstroms):
                    1          2          3          4
     1  H    0.000000
     2  N    1.006410   0.000000
     3  C    1.946486   1.355339   0.000000
     4  O    3.055105   2.273584   1.161782   0.000000
 Stoichiometry    CHNO
 Framework group  CS[SG(CHNO)]
 Deg. of freedom     5
 Full point group                 CS      NOp   2
 Largest Abelian subgroup         CS      NOp   2
 Largest concise Abelian subgroup C1      NOp   1
                         Standard orientation:                         
 ---------------------------------------------------------------------
 Center     Atomic      Atomic             Coordinates (Angstroms)
 Number     Number       Type             X           Y           Z
 ---------------------------------------------------------------------
      1          1           0        1.908491   -0.008185    0.000000
      2          7           0        1.032434   -0.503551    0.000000
      3          6           0        0.000000    0.374528    0.000000
      4          8           0       -1.141941    0.160734    0.000000
 ---------------------------------------------------------------------
 Rotational constants (GHZ):    181.3959708     11.9663239     11.2257819
 Leave Link  202 at Tue Jul 13 01:14:31 2021, MaxMem=    8388608 cpu:       0.0
 (Enter C:\G09W\l301.exe)
 Standard basis: STO-3G (5D, 7F)
 Ernie: Thresh=  0.10000D-02 Tol=  0.10000D-05 Strict=F.
 There are    13 symmetry adapted basis functions of A'  symmetry.
 There are     3 symmetry adapted basis functions of A"  symmetry.
 Integral buffers will be    262144 words long.
 Raffenetti 1 integral format.
 Two-electron integral symmetry is turned on.
    16 basis functions,    48 primitive gaussians,    16 cartesian basis functions
    11 alpha electrons       11 beta electrons
       nuclear repulsion energy        57.9933593049 Hartrees.
 IExCor=    0 DFT=F Ex=HF Corr=None ExCW=0 ScaHFX=  1.000000
 ScaDFX=  1.000000  1.000000  1.000000  1.000000 ScalE2=  1.000000  1.000000
 IRadAn=      0 IRanWt=     -1 IRanGd=            0 ICorTp=0
 NAtoms=    4 NActive=    4 NUniq=    4 SFac= 1.00D+00 NAtFMM=   60 NAOKFM=F Big=F
 Leave Link  301 at Tue Jul 13 01:14:31 2021, MaxMem=    8388608 cpu:       0.0
 (Enter C:\G09W\l302.exe)
 NPDir=0 NMtPBC=     1 NCelOv=     1 NCel=       1 NClECP=     1 NCelD=      1
         NCelK=      1 NCelE2=     1 NClLst=     1 CellRange=     0.0.
 One-electron integrals computed using PRISM.
 NBasis=    16 RedAO= T  NBF=    13     3
 NBsUse=    16 1.00D-06 NBFU=    13     3
 Leave Link  302 at Tue Jul 13 01:14:32 2021, MaxMem=    8388608 cpu:       1.0
 (Enter C:\G09W\l303.exe)
 DipDrv:  MaxL=1.
 Leave Link  303 at Tue Jul 13 01:14:32 2021, MaxMem=    8388608 cpu:       0.0
 (Enter C:\G09W\l401.exe)
 Harris functional with IExCor=  205 diagonalized for initial guess.
 ExpMin= 1.69D-01 ExpMax= 1.31D+02 ExpMxC= 1.31D+02 IAcc=1 IRadAn=         1 AccDes= 0.00D+00
 HarFok:  IExCor=  205 AccDes= 0.00D+00 IRadAn=         1 IDoV= 1
 ScaDFX=  1.000000  1.000000  1.000000  1.000000
 FoFCou: FMM=F IPFlag=           0 FMFlag=      100000 FMFlg1=           0
         NFxFlg=           0 DoJE=T BraDBF=F KetDBF=T FulRan=T
         Omega=  0.000000  0.000000  1.000000  0.000000  0.000000 ICntrl=     500 IOpCl=  0
         NMat0=    1 NMatS0=    1 NMatT0=    0 NMatD0=    1 NMtDS0=    0 NMtDT0=    0
         I1Cent=           4 NGrid=           0.
 Petite list used in FoFCou.
 Harris En= -165.494220992659    
 Initial guess orbital symmetries:
       Occupied  (A') (A') (A') (A') (A') (A') (A') (A") (A') (A')
                 (A")
       Virtual   (A') (A") (A') (A') (A')
 The electronic state of the initial guess is 1-A'.
 Leave Link  401 at Tue Jul 13 01:14:32 2021, MaxMem=    8388608 cpu:       0.0
 (Enter C:\G09W\l502.exe)
 Closed shell SCF:
 Requested convergence on RMS density matrix=1.00D-08 within 999 cycles.
 Requested convergence on MAX density matrix=1.00D-06.
 Requested convergence on             energy=1.00D-06.
 No special actions if energy rises.
 Using DIIS extrapolation, IDIIS=  1040.
 Integral symmetry usage will be decided dynamically.
 Keep R1 ints in memory in canonical form, NReq=1815021.
 IEnd=     1005691 IEndB=     1005691 NGot=     8388608 MDV=     8374035
 LenX=     8374035 LenY=     8373153
 Symmetry not used in FoFDir.
 MinBra= 0 MaxBra= 1 Meth= 1.
 IRaf=       0 NMat=   1 IRICut=       1 DoRegI=T DoRafI=F ISym2E= 0 JSym2E=0.

 Cycle   1  Pass 1  IDiag  1:
 E= -165.393169466809    
 DIIS: error= 5.00D-02 at cycle   1 NSaved=   1.
 NSaved= 1 IEnMin= 1 EnMin= -165.393169466809     IErMin= 1 ErrMin= 5.00D-02
 ErrMax= 5.00D-02 EMaxC= 1.00D-01 BMatC= 5.44D-02 BMatP= 5.44D-02
 IDIUse=3 WtCom= 5.00D-01 WtEn= 5.00D-01
 Coeff-Com:  0.100D+01
 Coeff-En:   0.100D+01
 Coeff:      0.100D+01
 Gap=     0.385 Goal=   None    Shift=    0.000
 GapD=    0.385 DampG=1.000 DampE=0.500 DampFc=0.5000 IDamp=-1.
 Damping current iteration by 5.00D-01
 RMSDP=2.45D-02 MaxDP=1.42D-01              OVMax= 0.00D+00

 Cycle   2  Pass 1  IDiag  1:
 E= -165.419405688034     Delta-E=       -0.026236221225 Rises=F Damp=T
 DIIS: error= 1.69D-02 at cycle   2 NSaved=   2.
 NSaved= 2 IEnMin= 2 EnMin= -165.419405688034     IErMin= 2 ErrMin= 1.69D-02
 ErrMax= 1.69D-02 EMaxC= 1.00D-01 BMatC= 7.77D-03 BMatP= 5.44D-02
 IDIUse=3 WtCom= 8.31D-01 WtEn= 1.69D-01
 Coeff-Com: -0.321D+00 0.132D+01
 Coeff-En:   0.000D+00 0.100D+01
 Coeff:     -0.267D+00 0.127D+01
 Gap=     0.482 Goal=   None    Shift=    0.000
 RMSDP=6.91D-03 MaxDP=3.20D-02 DE=-2.62D-02 OVMax= 0.00D+00

 Cycle   3  Pass 1  IDiag  1:
 E= -165.446534597975     Delta-E=       -0.027128909940 Rises=F Damp=F
 DIIS: error= 6.43D-03 at cycle   3 NSaved=   3.
 NSaved= 3 IEnMin= 3 EnMin= -165.446534597975     IErMin= 3 ErrMin= 6.43D-03
 ErrMax= 6.43D-03 EMaxC= 1.00D-01 BMatC= 1.04D-03 BMatP= 7.77D-03
 IDIUse=3 WtCom= 9.36D-01 WtEn= 6.43D-02
 Coeff-Com: -0.151D+00 0.230D+00 0.921D+00
 Coeff-En:   0.000D+00 0.000D+00 0.100D+01
 Coeff:     -0.141D+00 0.215D+00 0.926D+00
 Gap=     0.483 Goal=   None    Shift=    0.000
 RMSDP=3.16D-03 MaxDP=1.68D-02 DE=-2.71D-02 OVMax= 0.00D+00

 Cycle   4  Pass 1  IDiag  1:
 E= -165.448104439789     Delta-E=       -0.001569841814 Rises=F Damp=F
 DIIS: error= 2.26D-03 at cycle   4 NSaved=   4.
 NSaved= 4 IEnMin= 4 EnMin= -165.448104439789     IErMin= 4 ErrMin= 2.26D-03
 ErrMax= 2.26D-03 EMaxC= 1.00D-01 BMatC= 1.73D-04 BMatP= 1.04D-03
 IDIUse=3 WtCom= 9.77D-01 WtEn= 2.26D-02
 Coeff-Com: -0.378D-01 0.338D-02 0.256D+00 0.779D+00
 Coeff-En:   0.000D+00 0.000D+00 0.000D+00 0.100D+01
 Coeff:     -0.369D-01 0.330D-02 0.250D+00 0.784D+00
 Gap=     0.486 Goal=   None    Shift=    0.000
 RMSDP=1.40D-03 MaxDP=7.68D-03 DE=-1.57D-03 OVMax= 0.00D+00

 Cycle   5  Pass 1  IDiag  1:
 E= -165.448399645473     Delta-E=       -0.000295205684 Rises=F Damp=F
 DIIS: error= 1.78D-03 at cycle   5 NSaved=   5.
 NSaved= 5 IEnMin= 5 EnMin= -165.448399645473     IErMin= 5 ErrMin= 1.78D-03
 ErrMax= 1.78D-03 EMaxC= 1.00D-01 BMatC= 3.17D-05 BMatP= 1.73D-04
 IDIUse=3 WtCom= 9.82D-01 WtEn= 1.78D-02
 Coeff-Com:  0.336D-01-0.443D-01-0.291D+00-0.993D-02 0.131D+01
 Coeff-En:   0.000D+00 0.000D+00 0.000D+00 0.000D+00 0.100D+01
 Coeff:      0.330D-01-0.435D-01-0.286D+00-0.975D-02 0.131D+01
 Gap=     0.488 Goal=   None    Shift=    0.000
 RMSDP=1.03D-03 MaxDP=6.03D-03 DE=-2.95D-04 OVMax= 0.00D+00

 Cycle   6  Pass 1  IDiag  1:
 E= -165.448497989330     Delta-E=       -0.000098343857 Rises=F Damp=F
 DIIS: error= 2.61D-04 at cycle   6 NSaved=   6.
 NSaved= 6 IEnMin= 6 EnMin= -165.448497989330     IErMin= 6 ErrMin= 2.61D-04
 ErrMax= 2.61D-04 EMaxC= 1.00D-01 BMatC= 1.11D-06 BMatP= 3.17D-05
 IDIUse=3 WtCom= 9.97D-01 WtEn= 2.61D-03
 Coeff-Com: -0.160D-01 0.221D-01 0.154D+00-0.251D-01-0.727D+00 0.159D+01
 Coeff-En:   0.000D+00 0.000D+00 0.000D+00 0.000D+00 0.000D+00 0.100D+01
 Coeff:     -0.159D-01 0.220D-01 0.153D+00-0.251D-01-0.725D+00 0.159D+01
 Gap=     0.488 Goal=   None    Shift=    0.000
 RMSDP=2.66D-04 MaxDP=1.64D-03 DE=-9.83D-05 OVMax= 0.00D+00

 Cycle   7  Pass 1  IDiag  1:
 E= -165.448504752997     Delta-E=       -0.000006763667 Rises=F Damp=F
 DIIS: error= 9.42D-05 at cycle   7 NSaved=   7.
 NSaved= 7 IEnMin= 7 EnMin= -165.448504752997     IErMin= 7 ErrMin= 9.42D-05
 ErrMax= 9.42D-05 EMaxC= 1.00D-01 BMatC= 1.75D-07 BMatP= 1.11D-06
 IDIUse=1 WtCom= 1.00D+00 WtEn= 0.00D+00
 Coeff-Com:  0.910D-02-0.128D-01-0.928D-01 0.275D-01 0.419D+00-0.122D+01
 Coeff-Com:  0.187D+01
 Coeff:      0.910D-02-0.128D-01-0.928D-01 0.275D-01 0.419D+00-0.122D+01
 Coeff:      0.187D+01
 Gap=     0.488 Goal=   None    Shift=    0.000
 RMSDP=1.52D-04 MaxDP=7.84D-04 DE=-6.76D-06 OVMax= 0.00D+00

 Cycle   8  Pass 1  IDiag  1:
 E= -165.448506206383     Delta-E=       -0.000001453386 Rises=F Damp=F
 DIIS: error= 7.01D-05 at cycle   8 NSaved=   8.
 NSaved= 8 IEnMin= 8 EnMin= -165.448506206383     IErMin= 8 ErrMin= 7.01D-05
 ErrMax= 7.01D-05 EMaxC= 1.00D-01 BMatC= 3.74D-08 BMatP= 1.75D-07
 IDIUse=1 WtCom= 1.00D+00 WtEn= 0.00D+00
 Coeff-Com: -0.490D-02 0.652D-02 0.602D-01-0.251D-01-0.248D+00 0.840D+00
 Coeff-Com: -0.160D+01 0.197D+01
 Coeff:     -0.490D-02 0.652D-02 0.602D-01-0.251D-01-0.248D+00 0.840D+00
 Coeff:     -0.160D+01 0.197D+01
 Gap=     0.488 Goal=   None    Shift=    0.000
 RMSDP=6.91D-05 MaxDP=3.45D-04 DE=-1.45D-06 OVMax= 0.00D+00

 Cycle   9  Pass 1  IDiag  1:
 E= -165.448506505548     Delta-E=       -0.000000299165 Rises=F Damp=F
 DIIS: error= 2.06D-05 at cycle   9 NSaved=   9.
 NSaved= 9 IEnMin= 9 EnMin= -165.448506505548     IErMin= 9 ErrMin= 2.06D-05
 ErrMax= 2.06D-05 EMaxC= 1.00D-01 BMatC= 6.79D-09 BMatP= 3.74D-08
 IDIUse=1 WtCom= 1.00D+00 WtEn= 0.00D+00
 Coeff-Com:  0.135D-02-0.149D-02-0.254D-01 0.104D-01 0.965D-01-0.364D+00
 Coeff-Com:  0.804D+00-0.159D+01 0.207D+01
 Coeff:      0.135D-02-0.149D-02-0.254D-01 0.104D-01 0.965D-01-0.364D+00
 Coeff:      0.804D+00-0.159D+01 0.207D+01
 Gap=     0.489 Goal=   None    Shift=    0.000
 RMSDP=4.46D-05 MaxDP=2.52D-04 DE=-2.99D-07 OVMax= 0.00D+00

 Cycle  10  Pass 1  IDiag  1:
 E= -165.448506575235     Delta-E=       -0.000000069687 Rises=F Damp=F
 DIIS: error= 5.34D-06 at cycle  10 NSaved=  10.
 NSaved=10 IEnMin=10 EnMin= -165.448506575235     IErMin=10 ErrMin= 5.34D-06
 ErrMax= 5.34D-06 EMaxC= 1.00D-01 BMatC= 3.54D-10 BMatP= 6.79D-09
 IDIUse=1 WtCom= 1.00D+00 WtEn= 0.00D+00
 Coeff-Com: -0.437D-03 0.417D-03 0.100D-01-0.426D-02-0.363D-01 0.145D+00
 Coeff-Com: -0.331D+00 0.738D+00-0.119D+01 0.167D+01
 Coeff:     -0.437D-03 0.417D-03 0.100D-01-0.426D-02-0.363D-01 0.145D+00
 Coeff:     -0.331D+00 0.738D+00-0.119D+01 0.167D+01
 Gap=     0.488 Goal=   None    Shift=    0.000
 RMSDP=8.02D-06 MaxDP=4.63D-05 DE=-6.97D-08 OVMax= 0.00D+00

 Cycle  11  Pass 1  IDiag  1:
 E= -165.448506577959     Delta-E=       -0.000000002724 Rises=F Damp=F
 DIIS: error= 8.65D-07 at cycle  11 NSaved=  11.
 NSaved=11 IEnMin=11 EnMin= -165.448506577959     IErMin=11 ErrMin= 8.65D-07
 ErrMax= 8.65D-07 EMaxC= 1.00D-01 BMatC= 1.47D-11 BMatP= 3.54D-10
 IDIUse=1 WtCom= 1.00D+00 WtEn= 0.00D+00
 Coeff-Com:  0.485D-04-0.177D-04-0.196D-02 0.918D-03 0.643D-02-0.287D-01
 Coeff-Com:  0.669D-01-0.170D+00 0.299D+00-0.569D+00 0.140D+01
 Coeff:      0.485D-04-0.177D-04-0.196D-02 0.918D-03 0.643D-02-0.287D-01
 Coeff:      0.669D-01-0.170D+00 0.299D+00-0.569D+00 0.140D+01
 Gap=     0.488 Goal=   None    Shift=    0.000
 RMSDP=1.54D-06 MaxDP=7.40D-06 DE=-2.72D-09 OVMax= 0.00D+00

 Cycle  12  Pass 1  IDiag  1:
 E= -165.448506578041     Delta-E=       -0.000000000082 Rises=F Damp=F
 DIIS: error= 1.90D-07 at cycle  12 NSaved=  12.
 NSaved=12 IEnMin=12 EnMin= -165.448506578041     IErMin=12 ErrMin= 1.90D-07
 ErrMax= 1.90D-07 EMaxC= 1.00D-01 BMatC= 6.18D-13 BMatP= 1.47D-11
 IDIUse=1 WtCom= 1.00D+00 WtEn= 0.00D+00
 Coeff-Com:  0.916D-05-0.280D-04 0.347D-03-0.191D-03-0.871D-03 0.544D-02
 Coeff-Com: -0.136D-01 0.431D-01-0.833D-01 0.198D+00-0.698D+00 0.155D+01
 Coeff:      0.916D-05-0.280D-04 0.347D-03-0.191D-03-0.871D-03 0.544D-02
 Coeff:     -0.136D-01 0.431D-01-0.833D-01 0.198D+00-0.698D+00 0.155D+01
 Gap=     0.488 Goal=   None    Shift=    0.000
 RMSDP=1.64D-07 MaxDP=7.69D-07 DE=-8.23D-11 OVMax= 0.00D+00

 Cycle  13  Pass 1  IDiag  1:
 E= -165.448506578043     Delta-E=       -0.000000000002 Rises=F Damp=F
 DIIS: error= 4.51D-08 at cycle  13 NSaved=  13.
 NSaved=13 IEnMin=13 EnMin= -165.448506578043     IErMin=13 ErrMin= 4.51D-08
 ErrMax= 4.51D-08 EMaxC= 1.00D-01 BMatC= 4.42D-14 BMatP= 6.18D-13
 IDIUse=1 WtCom= 1.00D+00 WtEn= 0.00D+00
 Coeff-Com:  0.215D-05 0.268D-06-0.121D-03 0.538D-04 0.389D-03-0.183D-02
 Coeff-Com:  0.408D-02-0.113D-01 0.202D-01-0.461D-01 0.160D+00-0.464D+00
 Coeff-Com:  0.134D+01
 Coeff:      0.215D-05 0.268D-06-0.121D-03 0.538D-04 0.389D-03-0.183D-02
 Coeff:      0.408D-02-0.113D-01 0.202D-01-0.461D-01 0.160D+00-0.464D+00
 Coeff:      0.134D+01
 Gap=     0.488 Goal=   None    Shift=    0.000
 RMSDP=4.94D-08 MaxDP=2.46D-07 DE=-2.13D-12 OVMax= 0.00D+00

 Cycle  14  Pass 1  IDiag  1:
 E= -165.448506578044     Delta-E=        0.000000000000 Rises=F Damp=F
 DIIS: error= 6.62D-09 at cycle  14 NSaved=  14.
 NSaved=14 IEnMin=14 EnMin= -165.448506578044     IErMin=14 ErrMin= 6.62D-09
 ErrMax= 6.62D-09 EMaxC= 1.00D-01 BMatC= 1.27D-15 BMatP= 4.42D-14
 IDIUse=1 WtCom= 1.00D+00 WtEn= 0.00D+00
 Coeff-Com:  0.440D-06-0.683D-06-0.960D-06-0.241D-06 0.102D-04 0.113D-04
 Coeff-Com:  0.172D-04 0.426D-03-0.877D-03 0.418D-02-0.217D-01 0.997D-01
 Coeff-Com: -0.501D+00 0.142D+01
 Coeff:      0.440D-06-0.683D-06-0.960D-06-0.241D-06 0.102D-04 0.113D-04
 Coeff:      0.172D-04 0.426D-03-0.877D-03 0.418D-02-0.217D-01 0.997D-01
 Coeff:     -0.501D+00 0.142D+01
 Gap=     0.488 Goal=   None    Shift=    0.000
 RMSDP=8.82D-09 MaxDP=4.71D-08 DE=-8.53D-14 OVMax= 0.00D+00

 SCF Done:  E(RHF) =  -165.448506578     A.U. after   14 cycles
             Convg  =    0.8824D-08             -V/T =  2.0087
 KE= 1.640269248401D+02 PE=-5.056611024556D+02 EE= 1.181923117325D+02
 Leave Link  502 at Tue Jul 13 01:14:32 2021, MaxMem=    8388608 cpu:       0.0
 (Enter C:\G09W\l601.exe)
 Copying SCF densities to generalized density rwf, IOpCl= 0 IROHF=0.

 **********************************************************************

            Population analysis using the SCF density.

 **********************************************************************

 Orbital symmetries:
       Occupied  (A') (A') (A') (A') (A') (A') (A') (A") (A') (A')
                 (A")
       Virtual   (A') (A") (A') (A') (A')
 The electronic state is 1-A'.
 Alpha  occ. eigenvalues --  -20.40379 -15.31906 -11.20822  -1.43730  -1.11416
 Alpha  occ. eigenvalues --   -0.70782  -0.61085  -0.58505  -0.53910  -0.37964
 Alpha  occ. eigenvalues --   -0.31979
 Alpha virt. eigenvalues --    0.16871   0.30080   0.65062   0.82499   1.01782
          Condensed to atoms (all electrons):
              1          2          3          4
     1  H    0.562099   0.313062  -0.038371   0.001549
     2  N    0.313062   6.670567   0.382106  -0.030235
     3  C   -0.038371   0.382106   4.815015   0.496398
     4  O    0.001549  -0.030235   0.496398   7.703297
 Mulliken atomic charges:
              1
     1  H    0.161660
     2  N   -0.335501
     3  C    0.344851
     4  O   -0.171010
 Sum of Mulliken atomic charges =   0.00000
 Mulliken charges with hydrogens summed into heavy atoms:
              1
     2  N   -0.173841
     3  C    0.344851
     4  O   -0.171010
 Sum of Mulliken charges with hydrogens summed into heavy atoms =   0.00000
 Electronic spatial extent (au):  <R**2>=            120.5835
 Charge=              0.0000 electrons
 Dipole moment (field-independent basis, Debye):
    X=              0.8075    Y=              1.9644    Z=              0.0000  Tot=              2.1239
 Quadrupole moment (field-independent basis, Debye-Ang):
   XX=            -15.0975   YY=            -15.1793   ZZ=            -14.9092
   XY=              1.4853   XZ=              0.0000   YZ=              0.0000
 Traceless Quadrupole moment (field-independent basis, Debye-Ang):
   XX=             -0.0355   YY=             -0.1173   ZZ=              0.1528
   XY=              1.4853   XZ=              0.0000   YZ=              0.0000
 Octapole moment (field-independent basis, Debye-Ang**2):
  XXX=              3.1459  YYY=              1.5073  ZZZ=              0.0000  XYY=             -2.5313
  XXY=              0.9615  XXZ=              0.0000  XZZ=             -1.9482  YZZ=              0.4858
  YYZ=              0.0000  XYZ=              0.0000
 Hexadecapole moment (field-independent basis, Debye-Ang**3):
 XXXX=            -83.1951 YYYY=            -21.7212 ZZZZ=             -9.5309 XXXY=             12.1644
 XXXZ=              0.0000 YYYX=             10.7930 YYYZ=              0.0000 ZZZX=              0.0000
 ZZZY=              0.0000 XXYY=            -19.1631 XXZZ=            -17.2588 YYZZ=             -5.2529
 XXYZ=              0.0000 YYXZ=              0.0000 ZZXY=              3.6840
 N-N= 5.799335930492D+01 E-N=-5.056611024533D+02  KE= 1.640269248401D+02
 Symmetry A'   KE= 1.563667002849D+02
 Symmetry A"   KE= 7.660224555174D+00
 No NMR shielding tensors so no spin-rotation constants.
 Leave Link  601 at Tue Jul 13 01:14:33 2021, MaxMem=    8388608 cpu:       0.0
 (Enter C:\G09W\l701.exe)
 Compute integral first derivatives.
 ... and contract with generalized density number  0.
 Leave Link  701 at Tue Jul 13 01:14:33 2021, MaxMem=    8388608 cpu:       0.0
 (Enter C:\G09W\l702.exe)
 L702 exits ... SP integral derivatives will be done elsewhere.
 Leave Link  702 at Tue Jul 13 01:14:33 2021, MaxMem=    8388608 cpu:       0.0
 (Enter C:\G09W\l703.exe)
 Compute integral first derivatives, UseDBF=F ICtDFT=           0.
 Integral derivatives from FoFDir, PRISM(SPDF).
 Calling FoFJK, ICntrl=      2127 FMM=F ISym2X=1 I1Cent= 0 IOpClX= 0 NMat=1 NMatS=1 NMatT=0.
 FoFCou: FMM=F IPFlag=           0 FMFlag=      100000 FMFlg1=         800
         NFxFlg=           0 DoJE=F BraDBF=F KetDBF=F FulRan=T
         Omega=  0.000000  0.000000  1.000000  0.000000  0.000000 ICntrl=    2127 IOpCl=  0
         NMat0=    1 NMatS0=    1 NMatT0=    0 NMatD0=    1 NMtDS0=    0 NMtDT0=    0
         I1Cent=           0 NGrid=           0.
 Petite list used in FoFCou.
 Leave Link  703 at Tue Jul 13 01:14:33 2021, MaxMem=    8388608 cpu:       0.0
 (Enter C:\G09W\l716.exe)
 Dipole        = 3.17704102D-01 7.72847169D-01-4.61410653D-33
 ***** Axes restored to original set *****
 -------------------------------------------------------------------
 Center     Atomic                   Forces (Hartrees/Bohr)
 Number     Number              X              Y              Z
 -------------------------------------------------------------------
      1        1          -0.045741626   -0.006228816    0.000000000
      2        7           0.006832135    0.068095867    0.000000000
      3        6          -0.005743713   -0.142734194    0.000000000
      4        8           0.044653205    0.080867143    0.000000000
 -------------------------------------------------------------------
 Cartesian Forces:  Max     0.142734194 RMS     0.054584998
 Leave Link  716 at Tue Jul 13 01:14:34 2021, MaxMem=    8388608 cpu:       0.0
 (Enter C:\G09W\l103.exe)

 GradGradGradGradGradGradGradGradGradGradGradGradGradGradGradGradGradGrad
 Berny optimization.
 Internal  Forces:  Max     0.136260656 RMS     0.067673833
 Search for a local minimum.
 Step number   1 out of a maximum of   20
 All quantities printed in internal units (Hartrees-Bohrs-Radians)
 RMS Force = .67674D-01 SwitMx=.10000D-02 MixMth= 1
 Mixed Optimization -- RFO/linear search
 Second derivative matrix not updated -- first step.
 The second derivative matrix:
                          R1        R2        R3        A1        A2
           R1           0.46579
           R2           0.00000   0.53901
           R3           0.00000   0.00000   1.26634
           A1           0.00000   0.00000   0.00000   0.16000
           A2           0.00000   0.00000   0.00000   0.00000   0.25000
           D1           0.00000   0.00000   0.00000   0.00000   0.00000
                          D1
           D1           0.02283
 ITU=  0
     Eigenvalues ---    0.02283   0.16000   0.25000   0.46579   0.53901
     Eigenvalues ---    1.26634
 RFO step:  Lambda=-6.94332237D-02 EMin= 2.28256031D-02
 Linear search not attempted -- first point.
 Maximum step size (   0.050) exceeded in Quadratic search.
    -- Step size scaled by   0.112
 Iteration  1 RMS(Cart)=  0.02467323 RMS(Int)=  0.00049665
 Iteration  2 RMS(Cart)=  0.00048426 RMS(Int)=  0.00000002
 Iteration  3 RMS(Cart)=  0.00000003 RMS(Int)=  0.00000000
 ClnCor:  largest displacement from symmetrization is 1.67D-11 for atom     3.
 Variable       Old X    -DE/DX   Delta X   Delta X   Delta X     New X
                                 (Linear)    (Quad)   (Total)
    R1        1.90184   0.04574   0.00000   0.00956   0.00956   1.91140
    R2        2.56122  -0.04469   0.00000  -0.00821  -0.00821   2.55301
    R3        2.19545   0.06842   0.00000   0.00573   0.00573   2.20118
    A1        1.92218   0.01185   0.00000   0.00577   0.00577   1.92796
    A2        2.25173   0.13626   0.00000   0.04770   0.04770   2.29943
    D1        3.14159   0.00000   0.00000   0.00000   0.00000   3.14159
         Item               Value     Threshold  Converged?
 Maximum Force            0.136261     0.000450     NO 
 RMS     Force            0.067674     0.000300     NO 
 Maximum Displacement     0.037427     0.001800     NO 
 RMS     Displacement     0.024570     0.001200     NO 
 Predicted change in Energy=-7.416543D-03
 GradGradGradGradGradGradGradGradGradGradGradGradGradGradGradGradGradGrad

 Leave Link  103 at Tue Jul 13 01:14:34 2021, MaxMem=    8388608 cpu:       0.0
 (Enter C:\G09W\l202.exe)
                          Input orientation:                          
 ---------------------------------------------------------------------
 Center     Atomic      Atomic             Coordinates (Angstroms)
 Number     Number       Type             X           Y           Z
 ---------------------------------------------------------------------
      1          1           0       -0.009916    0.003270    0.000000
      2          7           0        1.001509   -0.005962    0.000000
      3          6           0        1.485372    1.255409    0.000000
      4          8           0        2.574551    1.668299    0.000000
 ---------------------------------------------------------------------
                    Distance matrix (angstroms):
                    1          2          3          4
     1  H    0.000000
     2  N    1.011467   0.000000
     3  C    1.950317   1.350992   0.000000
     4  O    3.074377   2.297305   1.164813   0.000000
 Stoichiometry    CHNO
 Framework group  CS[SG(CHNO)]
 Deg. of freedom     5
 Full point group                 CS      NOp   2
 RotChk:  IX=0 Diff= 2.93D-04
 Largest Abelian subgroup         CS      NOp   2
 Largest concise Abelian subgroup C1      NOp   1
                         Standard orientation:                         
 ---------------------------------------------------------------------
 Center     Atomic      Atomic             Coordinates (Angstroms)
 Number     Number       Type             X           Y           Z
 ---------------------------------------------------------------------
      1          1           0        1.917855   -0.000435    0.000000
      2          7           0        1.041872   -0.506124    0.000000
      3          6           0        0.000000    0.353924    0.000000
      4          8           0       -1.151370    0.177469    0.000000
 ---------------------------------------------------------------------
 Rotational constants (GHZ):    197.0658579     11.7374373     11.0776420
 Leave Link  202 at Tue Jul 13 01:14:34 2021, MaxMem=    8388608 cpu:       0.0
 (Enter C:\G09W\l301.exe)
 Standard basis: STO-3G (5D, 7F)
 Ernie: Thresh=  0.10000D-02 Tol=  0.10000D-05 Strict=F.
 There are    13 symmetry adapted basis functions of A'  symmetry.
 There are     3 symmetry adapted basis functions of A"  symmetry.
 Integral buffers will be    262144 words long.
 Raffenetti 1 integral format.
 Two-electron integral symmetry is turned on.
    16 basis functions,    48 primitive gaussians,    16 cartesian basis functions
    11 alpha electrons       11 beta electrons
       nuclear repulsion energy        57.8243497305 Hartrees.
 IExCor=    0 DFT=F Ex=HF Corr=None ExCW=0 ScaHFX=  1.000000
 ScaDFX=  1.000000  1.000000  1.000000  1.000000 ScalE2=  1.000000  1.000000
 IRadAn=      0 IRanWt=     -1 IRanGd=            0 ICorTp=0
 NAtoms=    4 NActive=    4 NUniq=    4 SFac= 1.00D+00 NAtFMM=   60 NAOKFM=F Big=F
 Leave Link  301 at Tue Jul 13 01:14:34 2021, MaxMem=    8388608 cpu:       0.0
 (Enter C:\G09W\l302.exe)
 NPDir=0 NMtPBC=     1 NCelOv=     1 NCel=       1 NClECP=     1 NCelD=      1
         NCelK=      1 NCelE2=     1 NClLst=     1 CellRange=     0.0.
 One-electron integrals computed using PRISM.
 NBasis=    16 RedAO= T  NBF=    13     3
 NBsUse=    16 1.00D-06 NBFU=    13     3
 Leave Link  302 at Tue Jul 13 01:14:34 2021, MaxMem=    8388608 cpu:       0.0
 (Enter C:\G09W\l303.exe)
 DipDrv:  MaxL=1.
 Leave Link  303 at Tue Jul 13 01:14:35 2021, MaxMem=    8388608 cpu:       0.0
 (Enter C:\G09W\l401.exe)
 Initial guess read from the read-write file.
 B after Tr=     0.000000    0.000000    0.000000
         Rot=    1.000000    0.000000    0.000000    0.000000 Ang=   0.00 deg.
 Guess basis will be translated and rotated to current coordinates.
 Initial guess orbital symmetries:
       Occupied  (A') (A') (A') (A') (A') (A') (A') (A") (A') (A')
                 (A")
       Virtual   (A') (A") (A') (A') (A')
 The electronic state of the initial guess is 1-A'.
 Generating alternative initial guess.
 Harris functional with IExCor=  205 diagonalized for initial guess.
 ExpMin= 1.69D-01 ExpMax= 1.31D+02 ExpMxC= 1.31D+02 IAcc=1 IRadAn=         1 AccDes= 0.00D+00
 HarFok:  IExCor=  205 AccDes= 0.00D+00 IRadAn=         1 IDoV= 1
 ScaDFX=  1.000000  1.000000  1.000000  1.000000
 FoFCou: FMM=F IPFlag=           0 FMFlag=      100000 FMFlg1=           0
         NFxFlg=           0 DoJE=T BraDBF=F KetDBF=T FulRan=T
         Omega=  0.000000  0.000000  1.000000  0.000000  0.000000 ICntrl=     500 IOpCl=  0
         NMat0=    1 NMatS0=    1 NMatT0=    0 NMatD0=    1 NMtDS0=    0 NMtDT0=    0
         I1Cent=           4 NGrid=           0.
 Petite list used in FoFCou.
 Harris En= -165.501643366500    
 Leave Link  401 at Tue Jul 13 01:14:35 2021, MaxMem=    8388608 cpu:       0.0
 (Enter C:\G09W\l502.exe)
 Closed shell SCF:
 Requested convergence on RMS density matrix=1.00D-08 within 999 cycles.
 Requested convergence on MAX density matrix=1.00D-06.
 Requested convergence on             energy=1.00D-06.
 No special actions if energy rises.
 Using DIIS extrapolation, IDIIS=  1040.
 Integral symmetry usage will be decided dynamically.
 Keep R1 ints in memory in canonical form, NReq=1815021.
 IEnd=     1005691 IEndB=     1005691 NGot=     8388608 MDV=     8374035
 LenX=     8374035 LenY=     8373153
 Symmetry not used in FoFDir.
 MinBra= 0 MaxBra= 1 Meth= 1.
 IRaf=       0 NMat=   1 IRICut=       1 DoRegI=T DoRafI=F ISym2E= 0 JSym2E=0.

 Cycle   1  Pass 1  IDiag  1:
 E= -165.454884891671    
 DIIS: error= 4.74D-03 at cycle   1 NSaved=   1.
 NSaved= 1 IEnMin= 1 EnMin= -165.454884891671     IErMin= 1 ErrMin= 4.74D-03
 ErrMax= 4.74D-03 EMaxC= 1.00D-01 BMatC= 4.45D-04 BMatP= 4.45D-04
 IDIUse=3 WtCom= 9.53D-01 WtEn= 4.74D-02
 Coeff-Com:  0.100D+01
 Coeff-En:   0.100D+01
 Coeff:      0.100D+01
 Gap=     0.497 Goal=   None    Shift=    0.000
 GapD=    0.497 DampG=2.000 DampE=1.000 DampFc=2.0000 IDamp=-1.
 RMSDP=2.33D-03 MaxDP=1.23D-02              OVMax= 0.00D+00

 Cycle   2  Pass 1  IDiag  1:
 E= -165.455741120722     Delta-E=       -0.000856229051 Rises=F Damp=F
 DIIS: error= 1.46D-03 at cycle   2 NSaved=   2.
 NSaved= 2 IEnMin= 2 EnMin= -165.455741120722     IErMin= 2 ErrMin= 1.46D-03
 ErrMax= 1.46D-03 EMaxC= 1.00D-01 BMatC= 4.98D-05 BMatP= 4.45D-04
 IDIUse=3 WtCom= 9.85D-01 WtEn= 1.46D-02
 Coeff-Com: -0.410D+00 0.141D+01
 Coeff-En:   0.000D+00 0.100D+01
 Coeff:     -0.404D+00 0.140D+01
 Gap=     0.495 Goal=   None    Shift=    0.000
 RMSDP=1.14D-03 MaxDP=5.52D-03 DE=-8.56D-04 OVMax= 0.00D+00

 Cycle   3  Pass 1  IDiag  1:
 E= -165.455873447657     Delta-E=       -0.000132326935 Rises=F Damp=F
 DIIS: error= 4.00D-04 at cycle   3 NSaved=   3.
 NSaved= 3 IEnMin= 3 EnMin= -165.455873447657     IErMin= 3 ErrMin= 4.00D-04
 ErrMax= 4.00D-04 EMaxC= 1.00D-01 BMatC= 2.84D-06 BMatP= 4.98D-05
 IDIUse=3 WtCom= 9.96D-01 WtEn= 4.00D-03
 Coeff-Com: -0.455D-01 0.893D-01 0.956D+00
 Coeff-En:   0.000D+00 0.000D+00 0.100D+01
 Coeff:     -0.453D-01 0.889D-01 0.956D+00
 Gap=     0.496 Goal=   None    Shift=    0.000
 RMSDP=2.33D-04 MaxDP=1.18D-03 DE=-1.32D-04 OVMax= 0.00D+00

 Cycle   4  Pass 1  IDiag  1:
 E= -165.455882240151     Delta-E=       -0.000008792493 Rises=F Damp=F
 DIIS: error= 2.58D-04 at cycle   4 NSaved=   4.
 NSaved= 4 IEnMin= 4 EnMin= -165.455882240151     IErMin= 4 ErrMin= 2.58D-04
 ErrMax= 2.58D-04 EMaxC= 1.00D-01 BMatC= 1.11D-06 BMatP= 2.84D-06
 IDIUse=3 WtCom= 9.97D-01 WtEn= 2.58D-03
 Coeff-Com:  0.980D-01-0.347D+00 0.128D+00 0.112D+01
 Coeff-En:   0.000D+00 0.000D+00 0.000D+00 0.100D+01
 Coeff:      0.978D-01-0.346D+00 0.127D+00 0.112D+01
 Gap=     0.496 Goal=   None    Shift=    0.000
 RMSDP=1.83D-04 MaxDP=8.74D-04 DE=-8.79D-06 OVMax= 0.00D+00

 Cycle   5  Pass 1  IDiag  1:
 E= -165.455886196703     Delta-E=       -0.000003956553 Rises=F Damp=F
 DIIS: error= 7.80D-05 at cycle   5 NSaved=   5.
 NSaved= 5 IEnMin= 5 EnMin= -165.455886196703     IErMin= 5 ErrMin= 7.80D-05
 ErrMax= 7.80D-05 EMaxC= 1.00D-01 BMatC= 1.26D-07 BMatP= 1.11D-06
 IDIUse=1 WtCom= 1.00D+00 WtEn= 0.00D+00
 Coeff-Com: -0.193D-01 0.851D-01-0.222D+00-0.352D+00 0.151D+01
 Coeff:     -0.193D-01 0.851D-01-0.222D+00-0.352D+00 0.151D+01
 Gap=     0.495 Goal=   None    Shift=    0.000
 RMSDP=1.10D-04 MaxDP=4.98D-04 DE=-3.96D-06 OVMax= 0.00D+00

 Cycle   6  Pass 1  IDiag  1:
 E= -165.455886982857     Delta-E=       -0.000000786154 Rises=F Damp=F
 DIIS: error= 2.88D-05 at cycle   6 NSaved=   6.
 NSaved= 6 IEnMin= 6 EnMin= -165.455886982857     IErMin= 6 ErrMin= 2.88D-05
 ErrMax= 2.88D-05 EMaxC= 1.00D-01 BMatC= 1.24D-08 BMatP= 1.26D-07
 IDIUse=1 WtCom= 1.00D+00 WtEn= 0.00D+00
 Coeff-Com:  0.710D-02-0.348D-01 0.116D+00 0.202D+00-0.980D+00 0.169D+01
 Coeff:      0.710D-02-0.348D-01 0.116D+00 0.202D+00-0.980D+00 0.169D+01
 Gap=     0.495 Goal=   None    Shift=    0.000
 RMSDP=3.51D-05 MaxDP=1.73D-04 DE=-7.86D-07 OVMax= 0.00D+00

 Cycle   7  Pass 1  IDiag  1:
 E= -165.455887080478     Delta-E=       -0.000000097620 Rises=F Damp=F
 DIIS: error= 2.19D-05 at cycle   7 NSaved=   7.
 NSaved= 7 IEnMin= 7 EnMin= -165.455887080478     IErMin= 7 ErrMin= 2.19D-05
 ErrMax= 2.19D-05 EMaxC= 1.00D-01 BMatC= 3.79D-09 BMatP= 1.24D-08
 IDIUse=1 WtCom= 1.00D+00 WtEn= 0.00D+00
 Coeff-Com: -0.218D-03 0.285D-02-0.230D-01-0.308D-01 0.234D+00-0.912D+00
 Coeff-Com:  0.173D+01
 Coeff:     -0.218D-03 0.285D-02-0.230D-01-0.308D-01 0.234D+00-0.912D+00
 Coeff:      0.173D+01
 Gap=     0.495 Goal=   None    Shift=    0.000
 RMSDP=2.30D-05 MaxDP=1.23D-04 DE=-9.76D-08 OVMax= 0.00D+00

 Cycle   8  Pass 1  IDiag  1:
 E= -165.455887113762     Delta-E=       -0.000000033284 Rises=F Damp=F
 DIIS: error= 1.01D-05 at cycle   8 NSaved=   8.
 NSaved= 8 IEnMin= 8 EnMin= -165.455887113762     IErMin= 8 ErrMin= 1.01D-05
 ErrMax= 1.01D-05 EMaxC= 1.00D-01 BMatC= 1.42D-09 BMatP= 3.79D-09
 IDIUse=1 WtCom= 1.00D+00 WtEn= 0.00D+00
 Coeff-Com: -0.378D-02 0.194D-01-0.733D-01-0.123D+00 0.618D+00-0.125D+01
 Coeff-Com:  0.890D+00 0.925D+00
 Coeff:     -0.378D-02 0.194D-01-0.733D-01-0.123D+00 0.618D+00-0.125D+01
 Coeff:      0.890D+00 0.925D+00
 Gap=     0.495 Goal=   None    Shift=    0.000
 RMSDP=1.41D-05 MaxDP=8.35D-05 DE=-3.33D-08 OVMax= 0.00D+00

 Cycle   9  Pass 1  IDiag  1:
 E= -165.455887122704     Delta-E=       -0.000000008942 Rises=F Damp=F
 DIIS: error= 2.91D-06 at cycle   9 NSaved=   9.
 NSaved= 9 IEnMin= 9 EnMin= -165.455887122704     IErMin= 9 ErrMin= 2.91D-06
 ErrMax= 2.91D-06 EMaxC= 1.00D-01 BMatC= 8.91D-11 BMatP= 1.42D-09
 IDIUse=1 WtCom= 1.00D+00 WtEn= 0.00D+00
 Coeff-Com:  0.164D-02-0.868D-02 0.357D-01 0.552D-01-0.293D+00 0.651D+00
 Coeff-Com: -0.597D+00-0.503D+00 0.166D+01
 Coeff:      0.164D-02-0.868D-02 0.357D-01 0.552D-01-0.293D+00 0.651D+00
 Coeff:     -0.597D+00-0.503D+00 0.166D+01
 Gap=     0.495 Goal=   None    Shift=    0.000
 RMSDP=4.47D-06 MaxDP=2.61D-05 DE=-8.94D-09 OVMax= 0.00D+00

 Cycle  10  Pass 1  IDiag  1:
 E= -165.455887123428     Delta-E=       -0.000000000724 Rises=F Damp=F
 DIIS: error= 2.97D-07 at cycle  10 NSaved=  10.
 NSaved=10 IEnMin=10 EnMin= -165.455887123428     IErMin=10 ErrMin= 2.97D-07
 ErrMax= 2.97D-07 EMaxC= 1.00D-01 BMatC= 2.19D-12 BMatP= 8.91D-11
 IDIUse=1 WtCom= 1.00D+00 WtEn= 0.00D+00
 Coeff-Com: -0.236D-03 0.128D-02-0.552D-02-0.810D-02 0.448D-01-0.106D+00
 Coeff-Com:  0.117D+00 0.564D-01-0.385D+00 0.129D+01
 Coeff:     -0.236D-03 0.128D-02-0.552D-02-0.810D-02 0.448D-01-0.106D+00
 Coeff:      0.117D+00 0.564D-01-0.385D+00 0.129D+01
 Gap=     0.495 Goal=   None    Shift=    0.000
 RMSDP=4.04D-07 MaxDP=2.52D-06 DE=-7.24D-10 OVMax= 0.00D+00

 Cycle  11  Pass 1  IDiag  1:
 E= -165.455887123437     Delta-E=       -0.000000000008 Rises=F Damp=F
 DIIS: error= 5.29D-08 at cycle  11 NSaved=  11.
 NSaved=11 IEnMin=11 EnMin= -165.455887123437     IErMin=11 ErrMin= 5.29D-08
 ErrMax= 5.29D-08 EMaxC= 1.00D-01 BMatC= 5.50D-14 BMatP= 2.19D-12
 IDIUse=1 WtCom= 1.00D+00 WtEn= 0.00D+00
 Coeff-Com:  0.495D-04-0.270D-03 0.114D-02 0.175D-02-0.954D-02 0.230D-01
 Coeff-Com: -0.271D-01-0.112D-01 0.103D+00-0.472D+00 0.139D+01
 Coeff:      0.495D-04-0.270D-03 0.114D-02 0.175D-02-0.954D-02 0.230D-01
 Coeff:     -0.271D-01-0.112D-01 0.103D+00-0.472D+00 0.139D+01
 Gap=     0.495 Goal=   None    Shift=    0.000
 RMSDP=3.96D-08 MaxDP=2.07D-07 DE=-8.47D-12 OVMax= 0.00D+00

 Cycle  12  Pass 1  IDiag  1:
 E= -165.455887123436     Delta-E=        0.000000000000 Rises=F Damp=F
 DIIS: error= 1.35D-08 at cycle  12 NSaved=  12.
 NSaved=12 IEnMin=11 EnMin= -165.455887123437     IErMin=12 ErrMin= 1.35D-08
 ErrMax= 1.35D-08 EMaxC= 1.00D-01 BMatC= 3.18D-15 BMatP= 5.50D-14
 IDIUse=1 WtCom= 1.00D+00 WtEn= 0.00D+00
 Coeff-Com: -0.175D-04 0.965D-04-0.412D-03-0.628D-03 0.345D-02-0.844D-02
 Coeff-Com:  0.104D-01 0.403D-02-0.409D-01 0.204D+00-0.777D+00 0.161D+01
 Coeff:     -0.175D-04 0.965D-04-0.412D-03-0.628D-03 0.345D-02-0.844D-02
 Coeff:      0.104D-01 0.403D-02-0.409D-01 0.204D+00-0.777D+00 0.161D+01
 Gap=     0.495 Goal=   None    Shift=    0.000
 RMSDP=1.48D-08 MaxDP=7.02D-08 DE= 1.71D-13 OVMax= 0.00D+00

 Cycle  13  Pass 1  IDiag  1:
 E= -165.455887123437     Delta-E=        0.000000000000 Rises=F Damp=F
 DIIS: error= 2.42D-09 at cycle  13 NSaved=  13.
 NSaved=13 IEnMin=11 EnMin= -165.455887123437     IErMin=13 ErrMin= 2.42D-09
 ErrMax= 2.42D-09 EMaxC= 1.00D-01 BMatC= 9.32D-17 BMatP= 3.18D-15
 IDIUse=1 WtCom= 1.00D+00 WtEn= 0.00D+00
 Coeff-Com:  0.441D-05-0.245D-04 0.105D-03 0.159D-03-0.882D-03 0.219D-02
 Coeff-Com: -0.278D-02-0.887D-03 0.108D-01-0.559D-01 0.229D+00-0.584D+00
 Coeff-Com:  0.140D+01
 Coeff:      0.441D-05-0.245D-04 0.105D-03 0.159D-03-0.882D-03 0.219D-02
 Coeff:     -0.278D-02-0.887D-03 0.108D-01-0.559D-01 0.229D+00-0.584D+00
 Coeff:      0.140D+01
 Gap=     0.495 Goal=   None    Shift=    0.000
 RMSDP=2.02D-09 MaxDP=9.70D-09 DE=-1.14D-13 OVMax= 0.00D+00

 SCF Done:  E(RHF) =  -165.455887123     A.U. after   13 cycles
             Convg  =    0.2017D-08             -V/T =  2.0089
 KE= 1.639989305260D+02 PE=-5.053158509086D+02 EE= 1.180366835287D+02
 Leave Link  502 at Tue Jul 13 01:14:35 2021, MaxMem=    8388608 cpu:       0.0
 (Enter C:\G09W\l701.exe)
 Compute integral first derivatives.
 ... and contract with generalized density number  0.
 Leave Link  701 at Tue Jul 13 01:14:36 2021, MaxMem=    8388608 cpu:       1.0
 (Enter C:\G09W\l702.exe)
 L702 exits ... SP integral derivatives will be done elsewhere.
 Leave Link  702 at Tue Jul 13 01:14:36 2021, MaxMem=    8388608 cpu:       0.0
 (Enter C:\G09W\l703.exe)
 Compute integral first derivatives, UseDBF=F ICtDFT=           0.
 Integral derivatives from FoFDir, PRISM(SPDF).
 Calling FoFJK, ICntrl=      2127 FMM=F ISym2X=1 I1Cent= 0 IOpClX= 0 NMat=1 NMatS=1 NMatT=0.
 FoFCou: FMM=F IPFlag=           0 FMFlag=      100000 FMFlg1=         800
         NFxFlg=           0 DoJE=F BraDBF=F KetDBF=F FulRan=T
         Omega=  0.000000  0.000000  1.000000  0.000000  0.000000 ICntrl=    2127 IOpCl=  0
         NMat0=    1 NMatS0=    1 NMatT0=    0 NMatD0=    1 NMtDS0=    0 NMtDT0=    0
         I1Cent=           0 NGrid=           0.
 Petite list used in FoFCou.
 Leave Link  703 at Tue Jul 13 01:14:36 2021, MaxMem=    8388608 cpu:       0.0
 (Enter C:\G09W\l716.exe)
 Dipole        = 3.31749002D-01 7.63375522D-01 1.55235501D-33
 ***** Axes restored to original set *****
 -------------------------------------------------------------------
 Center     Atomic                   Forces (Hartrees/Bohr)
 Number     Number              X              Y              Z
 -------------------------------------------------------------------
      1        1          -0.038696182   -0.004722834    0.000000000
      2        7           0.008883362    0.071306338    0.000000000
      3        6          -0.003685029   -0.138673759    0.000000000
      4        8           0.033497849    0.072090256    0.000000000
 -------------------------------------------------------------------
 Cartesian Forces:  Max     0.138673759 RMS     0.051838137
 Leave Link  716 at Tue Jul 13 01:14:36 2021, MaxMem=    8388608 cpu:       0.0
 (Enter C:\G09W\l103.exe)

 GradGradGradGradGradGradGradGradGradGradGradGradGradGradGradGradGradGrad
 Berny optimization.
 Using GEDIIS/GDIIS optimizer.
 Internal  Forces:  Max     0.122243095 RMS     0.061124861
 Search for a local minimum.
 Step number   2 out of a maximum of   20
 All quantities printed in internal units (Hartrees-Bohrs-Radians)
 RMS Force = .61125D-01 SwitMx=.10000D-02 MixMth= 1
 Mixed Optimization -- RFO/linear search
 Update second derivatives using D2CorX and points    1    2
 DE= -7.38D-03 DEPred=-7.42D-03 R= 9.95D-01
 SS=  1.41D+00  RLast= 5.00D-02 DXNew= 8.4090D-02 1.5000D-01
 Trust test= 9.95D-01 RLast= 5.00D-02 DXMaxT set to 8.41D-02
 The second derivative matrix:
                          R1        R2        R3        A1        A2
           R1           0.50349
           R2           0.09184   0.57162
           R3           0.06135   0.14957   1.36617
           A1           0.01411   0.02508   0.02296   0.16483
           A2           0.05452   0.20150   0.08866   0.02374   0.30414
           D1           0.00000   0.00000   0.00000   0.00000   0.00000
                          D1
           D1           0.02283
 ITU=  1  0
 Use linear search instead of GDIIS.
 Linear search step of   0.100 exceeds DXMaxT=   0.084 but not scaled.
 Quartic linear search produced a step of  2.00000.
 Iteration  1 RMS(Cart)=  0.04863172 RMS(Int)=  0.00196551
 Iteration  2 RMS(Cart)=  0.00194796 RMS(Int)=  0.00000046
 Iteration  3 RMS(Cart)=  0.00000059 RMS(Int)=  0.00000000
 ClnCor:  largest displacement from symmetrization is 1.53D-10 for atom     3.
 Variable       Old X    -DE/DX   Delta X   Delta X   Delta X     New X
                                 (Linear)    (Quad)   (Total)
    R1        1.91140   0.03865   0.01911   0.00000   0.01911   1.93051
    R2        2.55301  -0.05149  -0.01643   0.00000  -0.01643   2.53658
    R3        2.20118   0.05688   0.01145   0.00000   0.01145   2.21263
    A1        1.92796   0.00970   0.01155   0.00000   0.01155   1.93950
    A2        2.29943   0.12224   0.09540   0.00000   0.09540   2.39483
    D1        3.14159   0.00000   0.00000   0.00000   0.00000   3.14159
         Item               Value     Threshold  Converged?
 Maximum Force            0.122243     0.000450     NO 
 RMS     Force            0.061125     0.000300     NO 
 Maximum Displacement     0.071940     0.001800     NO 
 RMS     Displacement     0.048288     0.001200     NO 
 Predicted change in Energy=-1.249145D-02
 GradGradGradGradGradGradGradGradGradGradGradGradGradGradGradGradGradGrad

 Leave Link  103 at Tue Jul 13 01:14:36 2021, MaxMem=    8388608 cpu:       0.0
 (Enter C:\G09W\l202.exe)
                          Input orientation:                          
 ---------------------------------------------------------------------
 Center     Atomic      Atomic             Coordinates (Angstroms)
 Number     Number       Type             X           Y           Z
 ---------------------------------------------------------------------
      1          1           0       -0.028562    0.011071    0.000000
      2          7           0        0.992625   -0.017297    0.000000
      3          6           0        1.510988    1.220874    0.000000
      4          8           0        2.576465    1.706368    0.000000
 ---------------------------------------------------------------------
                    Distance matrix (angstroms):
                    1          2          3          4
     1  H    0.000000
     2  N    1.021581   0.000000
     3  C    1.958018   1.342299   0.000000
     4  O    3.108086   2.340849   1.170875   0.000000
 Stoichiometry    CHNO
 Framework group  CS[SG(CHNO)]
 Deg. of freedom     5
 Full point group                 CS      NOp   2
 RotChk:  IX=0 Diff= 5.63D-03
 Largest Abelian subgroup         CS      NOp   2
 Largest concise Abelian subgroup C1      NOp   1
                         Standard orientation:                         
 ---------------------------------------------------------------------
 Center     Atomic      Atomic             Coordinates (Angstroms)
 Number     Number       Type             X           Y           Z
 ---------------------------------------------------------------------
      1          1           0        1.934366    0.008786    0.000000
      2          7           0        1.057210   -0.514879    0.000000
      3          6           0        0.000000    0.312209    0.000000
      4          8           0       -1.166855    0.215265    0.000000
 ---------------------------------------------------------------------
 Rotational constants (GHZ):    234.4690797     11.3356925     10.8129283
 Leave Link  202 at Tue Jul 13 01:14:37 2021, MaxMem=    8388608 cpu:       0.0
 (Enter C:\G09W\l301.exe)
 Standard basis: STO-3G (5D, 7F)
 Ernie: Thresh=  0.10000D-02 Tol=  0.10000D-05 Strict=F.
 There are    13 symmetry adapted basis functions of A'  symmetry.
 There are     3 symmetry adapted basis functions of A"  symmetry.
 Integral buffers will be    262144 words long.
 Raffenetti 1 integral format.
 Two-electron integral symmetry is turned on.
    16 basis functions,    48 primitive gaussians,    16 cartesian basis functions
    11 alpha electrons       11 beta electrons
       nuclear repulsion energy        57.5204538188 Hartrees.
 IExCor=    0 DFT=F Ex=HF Corr=None ExCW=0 ScaHFX=  1.000000
 ScaDFX=  1.000000  1.000000  1.000000  1.000000 ScalE2=  1.000000  1.000000
 IRadAn=      0 IRanWt=     -1 IRanGd=            0 ICorTp=0
 NAtoms=    4 NActive=    4 NUniq=    4 SFac= 1.00D+00 NAtFMM=   60 NAOKFM=F Big=F
 Leave Link  301 at Tue Jul 13 01:14:37 2021, MaxMem=    8388608 cpu:       0.0
 (Enter C:\G09W\l302.exe)
 NPDir=0 NMtPBC=     1 NCelOv=     1 NCel=       1 NClECP=     1 NCelD=      1
         NCelK=      1 NCelE2=     1 NClLst=     1 CellRange=     0.0.
 One-electron integrals computed using PRISM.
 NBasis=    16 RedAO= T  NBF=    13     3
 NBsUse=    16 1.00D-06 NBFU=    13     3
 Leave Link  302 at Tue Jul 13 01:14:37 2021, MaxMem=    8388608 cpu:       0.0
 (Enter C:\G09W\l303.exe)
 DipDrv:  MaxL=1.
 Leave Link  303 at Tue Jul 13 01:14:37 2021, MaxMem=    8388608 cpu:       0.0
 (Enter C:\G09W\l401.exe)
 Initial guess read from the read-write file.
 B after Tr=     0.000000    0.000000    0.000000
         Rot=    1.000000    0.000000    0.000000    0.000000 Ang=   0.00 deg.
 Guess basis will be translated and rotated to current coordinates.
 Initial guess orbital symmetries:
       Occupied  (A') (A') (A') (A') (A') (A') (A') (A") (A') (A')
                 (A")
       Virtual   (A') (A") (A') (A') (A')
 The electronic state of the initial guess is 1-A'.
 Generating alternative initial guess.
 Harris functional with IExCor=  205 diagonalized for initial guess.
 ExpMin= 1.69D-01 ExpMax= 1.31D+02 ExpMxC= 1.31D+02 IAcc=1 IRadAn=         1 AccDes= 0.00D+00
 HarFok:  IExCor=  205 AccDes= 0.00D+00 IRadAn=         1 IDoV= 1
 ScaDFX=  1.000000  1.000000  1.000000  1.000000
 FoFCou: FMM=F IPFlag=           0 FMFlag=      100000 FMFlg1=           0
         NFxFlg=           0 DoJE=T BraDBF=F KetDBF=T FulRan=T
         Omega=  0.000000  0.000000  1.000000  0.000000  0.000000 ICntrl=     500 IOpCl=  0
         NMat0=    1 NMatS0=    1 NMatT0=    0 NMatD0=    1 NMtDS0=    0 NMtDT0=    0
         I1Cent=           4 NGrid=           0.
 Petite list used in FoFCou.
 Harris En= -165.514498130029    
 Leave Link  401 at Tue Jul 13 01:14:37 2021, MaxMem=    8388608 cpu:       0.0
 (Enter C:\G09W\l502.exe)
 Closed shell SCF:
 Requested convergence on RMS density matrix=1.00D-08 within 999 cycles.
 Requested convergence on MAX density matrix=1.00D-06.
 Requested convergence on             energy=1.00D-06.
 No special actions if energy rises.
 Using DIIS extrapolation, IDIIS=  1040.
 Integral symmetry usage will be decided dynamically.
 Keep R1 ints in memory in canonical form, NReq=1815021.
 IEnd=     1005691 IEndB=     1005691 NGot=     8388608 MDV=     8374035
 LenX=     8374035 LenY=     8373153
 Symmetry not used in FoFDir.
 MinBra= 0 MaxBra= 1 Meth= 1.
 IRaf=       0 NMat=   1 IRICut=       1 DoRegI=T DoRafI=F ISym2E= 0 JSym2E=0.

 Cycle   1  Pass 1  IDiag  1:
 E= -165.464208608903    
 DIIS: error= 9.99D-03 at cycle   1 NSaved=   1.
 NSaved= 1 IEnMin= 1 EnMin= -165.464208608903     IErMin= 1 ErrMin= 9.99D-03
 ErrMax= 9.99D-03 EMaxC= 1.00D-01 BMatC= 1.91D-03 BMatP= 1.91D-03
 IDIUse=3 WtCom= 9.00D-01 WtEn= 9.99D-02
 Coeff-Com:  0.100D+01
 Coeff-En:   0.100D+01
 Coeff:      0.100D+01
 Gap=     0.513 Goal=   None    Shift=    0.000
 GapD=    0.513 DampG=2.000 DampE=1.000 DampFc=2.0000 IDamp=-1.
 RMSDP=4.81D-03 MaxDP=2.65D-02              OVMax= 0.00D+00

 Cycle   2  Pass 1  IDiag  1:
 E= -165.467879013072     Delta-E=       -0.003670404170 Rises=F Damp=F
 DIIS: error= 3.21D-03 at cycle   2 NSaved=   2.
 NSaved= 2 IEnMin= 2 EnMin= -165.467879013072     IErMin= 2 ErrMin= 3.21D-03
 ErrMax= 3.21D-03 EMaxC= 1.00D-01 BMatC= 2.09D-04 BMatP= 1.91D-03
 IDIUse=3 WtCom= 9.68D-01 WtEn= 3.21D-02
 Coeff-Com: -0.416D+00 0.142D+01
 Coeff-En:   0.000D+00 0.100D+01
 Coeff:     -0.403D+00 0.140D+01
 Gap=     0.509 Goal=   None    Shift=    0.000
 RMSDP=2.34D-03 MaxDP=1.16D-02 DE=-3.67D-03 OVMax= 0.00D+00

 Cycle   3  Pass 1  IDiag  1:
 E= -165.468427972773     Delta-E=       -0.000548959700 Rises=F Damp=F
 DIIS: error= 7.38D-04 at cycle   3 NSaved=   3.
 NSaved= 3 IEnMin= 3 EnMin= -165.468427972773     IErMin= 3 ErrMin= 7.38D-04
 ErrMax= 7.38D-04 EMaxC= 1.00D-01 BMatC= 1.09D-05 BMatP= 2.09D-04
 IDIUse=3 WtCom= 9.93D-01 WtEn= 7.38D-03
 Coeff-Com: -0.416D-01 0.748D-01 0.967D+00
 Coeff-En:   0.000D+00 0.000D+00 0.100D+01
 Coeff:     -0.413D-01 0.742D-01 0.967D+00
 Gap=     0.511 Goal=   None    Shift=    0.000
 RMSDP=4.64D-04 MaxDP=2.50D-03 DE=-5.49D-04 OVMax= 0.00D+00

 Cycle   4  Pass 1  IDiag  1:
 E= -165.468460268840     Delta-E=       -0.000032296067 Rises=F Damp=F
 DIIS: error= 4.33D-04 at cycle   4 NSaved=   4.
 NSaved= 4 IEnMin= 4 EnMin= -165.468460268840     IErMin= 4 ErrMin= 4.33D-04
 ErrMax= 4.33D-04 EMaxC= 1.00D-01 BMatC= 3.80D-06 BMatP= 1.09D-05
 IDIUse=3 WtCom= 9.96D-01 WtEn= 4.33D-03
 Coeff-Com:  0.875D-01-0.310D+00 0.154D+00 0.107D+01
 Coeff-En:   0.000D+00 0.000D+00 0.000D+00 0.100D+01
 Coeff:      0.871D-01-0.309D+00 0.153D+00 0.107D+01
 Gap=     0.510 Goal=   None    Shift=    0.000
 RMSDP=3.33D-04 MaxDP=1.89D-03 DE=-3.23D-05 OVMax= 0.00D+00

 Cycle   5  Pass 1  IDiag  1:
 E= -165.468474020384     Delta-E=       -0.000013751544 Rises=F Damp=F
 DIIS: error= 1.67D-04 at cycle   5 NSaved=   5.
 NSaved= 5 IEnMin= 5 EnMin= -165.468474020384     IErMin= 5 ErrMin= 1.67D-04
 ErrMax= 1.67D-04 EMaxC= 1.00D-01 BMatC= 5.97D-07 BMatP= 3.80D-06
 IDIUse=3 WtCom= 9.98D-01 WtEn= 1.67D-03
 Coeff-Com: -0.840D-02 0.470D-01-0.249D+00-0.237D+00 0.145D+01
 Coeff-En:   0.000D+00 0.000D+00 0.000D+00 0.000D+00 0.100D+01
 Coeff:     -0.838D-02 0.470D-01-0.248D+00-0.237D+00 0.145D+01
 Gap=     0.510 Goal=   None    Shift=    0.000
 RMSDP=2.26D-04 MaxDP=1.07D-03 DE=-1.38D-05 OVMax= 0.00D+00

 Cycle   6  Pass 1  IDiag  1:
 E= -165.468477247833     Delta-E=       -0.000003227449 Rises=F Damp=F
 DIIS: error= 1.27D-04 at cycle   6 NSaved=   6.
 NSaved= 6 IEnMin= 6 EnMin= -165.468477247833     IErMin= 6 ErrMin= 1.27D-04
 ErrMax= 1.27D-04 EMaxC= 1.00D-01 BMatC= 1.50D-07 BMatP= 5.97D-07
 IDIUse=3 WtCom= 9.99D-01 WtEn= 1.27D-03
 Coeff-Com: -0.125D-01 0.519D-01-0.115D+00-0.181D+00 0.615D+00 0.642D+00
 Coeff-En:   0.000D+00 0.000D+00 0.000D+00 0.000D+00 0.000D+00 0.100D+01
 Coeff:     -0.124D-01 0.518D-01-0.115D+00-0.181D+00 0.614D+00 0.642D+00
 Gap=     0.510 Goal=   None    Shift=    0.000
 RMSDP=3.97D-05 MaxDP=2.38D-04 DE=-3.23D-06 OVMax= 0.00D+00

 Cycle   7  Pass 1  IDiag  1:
 E= -165.468477567871     Delta-E=       -0.000000320038 Rises=F Damp=F
 DIIS: error= 4.86D-05 at cycle   7 NSaved=   7.
 NSaved= 7 IEnMin= 7 EnMin= -165.468477567871     IErMin= 7 ErrMin= 4.86D-05
 ErrMax= 4.86D-05 EMaxC= 1.00D-01 BMatC= 3.19D-08 BMatP= 1.50D-07
 IDIUse=1 WtCom= 1.00D+00 WtEn= 0.00D+00
 Coeff-Com:  0.586D-02-0.275D-01 0.920D-01 0.124D+00-0.579D+00-0.452D+00
 Coeff-Com:  0.184D+01
 Coeff:      0.586D-02-0.275D-01 0.920D-01 0.124D+00-0.579D+00-0.452D+00
 Coeff:      0.184D+01
 Gap=     0.510 Goal=   None    Shift=    0.000
 RMSDP=6.52D-05 MaxDP=3.27D-04 DE=-3.20D-07 OVMax= 0.00D+00

 Cycle   8  Pass 1  IDiag  1:
 E= -165.468477858690     Delta-E=       -0.000000290819 Rises=F Damp=F
 DIIS: error= 3.02D-05 at cycle   8 NSaved=   8.
 NSaved= 8 IEnMin= 8 EnMin= -165.468477858690     IErMin= 8 ErrMin= 3.02D-05
 ErrMax= 3.02D-05 EMaxC= 1.00D-01 BMatC= 7.85D-09 BMatP= 3.19D-08
 IDIUse=1 WtCom= 1.00D+00 WtEn= 0.00D+00
 Coeff-Com: -0.357D-02 0.185D-01-0.800D-01-0.984D-01 0.529D+00 0.243D+00
 Coeff-Com: -0.198D+01 0.237D+01
 Coeff:     -0.357D-02 0.185D-01-0.800D-01-0.984D-01 0.529D+00 0.243D+00
 Coeff:     -0.198D+01 0.237D+01
 Gap=     0.510 Goal=   None    Shift=    0.000
 RMSDP=5.01D-05 MaxDP=2.67D-04 DE=-2.91D-07 OVMax= 0.00D+00

 Cycle   9  Pass 1  IDiag  1:
 E= -165.468477944260     Delta-E=       -0.000000085570 Rises=F Damp=F
 DIIS: error= 3.84D-06 at cycle   9 NSaved=   9.
 NSaved= 9 IEnMin= 9 EnMin= -165.468477944260     IErMin= 9 ErrMin= 3.84D-06
 ErrMax= 3.84D-06 EMaxC= 1.00D-01 BMatC= 3.10D-10 BMatP= 7.85D-09
 IDIUse=1 WtCom= 1.00D+00 WtEn= 0.00D+00
 Coeff-Com:  0.155D-02-0.828D-02 0.384D-01 0.459D-01-0.256D+00-0.751D-01
 Coeff-Com:  0.942D+00-0.133D+01 0.164D+01
 Coeff:      0.155D-02-0.828D-02 0.384D-01 0.459D-01-0.256D+00-0.751D-01
 Coeff:      0.942D+00-0.133D+01 0.164D+01
 Gap=     0.510 Goal=   None    Shift=    0.000
 RMSDP=6.98D-06 MaxDP=4.12D-05 DE=-8.56D-08 OVMax= 0.00D+00

 Cycle  10  Pass 1  IDiag  1:
 E= -165.468477946303     Delta-E=       -0.000000002042 Rises=F Damp=F
 DIIS: error= 6.22D-07 at cycle  10 NSaved=  10.
 NSaved=10 IEnMin=10 EnMin= -165.468477946303     IErMin=10 ErrMin= 6.22D-07
 ErrMax= 6.22D-07 EMaxC= 1.00D-01 BMatC= 9.33D-12 BMatP= 3.10D-10
 IDIUse=1 WtCom= 1.00D+00 WtEn= 0.00D+00
 Coeff-Com: -0.218D-03 0.119D-02-0.571D-02-0.632D-02 0.372D-01 0.126D-01
 Coeff-Com: -0.146D+00 0.218D+00-0.419D+00 0.131D+01
 Coeff:     -0.218D-03 0.119D-02-0.571D-02-0.632D-02 0.372D-01 0.126D-01
 Coeff:     -0.146D+00 0.218D+00-0.419D+00 0.131D+01
 Gap=     0.510 Goal=   None    Shift=    0.000
 RMSDP=7.90D-07 MaxDP=5.00D-06 DE=-2.04D-09 OVMax= 0.00D+00

 Cycle  11  Pass 1  IDiag  1:
 E= -165.468477946338     Delta-E=       -0.000000000035 Rises=F Damp=F
 DIIS: error= 1.17D-07 at cycle  11 NSaved=  11.
 NSaved=11 IEnMin=11 EnMin= -165.468477946338     IErMin=11 ErrMin= 1.17D-07
 ErrMax= 1.17D-07 EMaxC= 1.00D-01 BMatC= 2.20D-13 BMatP= 9.33D-12
 IDIUse=1 WtCom= 1.00D+00 WtEn= 0.00D+00
 Coeff-Com:  0.422D-04-0.230D-03 0.106D-02 0.131D-02-0.730D-02-0.256D-02
 Coeff-Com:  0.293D-01-0.453D-01 0.108D+00-0.459D+00 0.137D+01
 Coeff:      0.422D-04-0.230D-03 0.106D-02 0.131D-02-0.730D-02-0.256D-02
 Coeff:      0.293D-01-0.453D-01 0.108D+00-0.459D+00 0.137D+01
 Gap=     0.510 Goal=   None    Shift=    0.000
 RMSDP=7.41D-08 MaxDP=3.86D-07 DE=-3.50D-11 OVMax= 0.00D+00

 Cycle  12  Pass 1  IDiag  1:
 E= -165.468477946338     Delta-E=        0.000000000000 Rises=F Damp=F
 DIIS: error= 2.48D-08 at cycle  12 NSaved=  12.
 NSaved=12 IEnMin=12 EnMin= -165.468477946338     IErMin=12 ErrMin= 2.48D-08
 ErrMax= 2.48D-08 EMaxC= 1.00D-01 BMatC= 1.00D-14 BMatP= 2.20D-13
 IDIUse=1 WtCom= 1.00D+00 WtEn= 0.00D+00
 Coeff-Com: -0.141D-04 0.777D-04-0.358D-03-0.447D-03 0.249D-02 0.873D-03
 Coeff-Com: -0.101D-01 0.161D-01-0.414D-01 0.190D+00-0.726D+00 0.157D+01
 Coeff:     -0.141D-04 0.777D-04-0.358D-03-0.447D-03 0.249D-02 0.873D-03
 Coeff:     -0.101D-01 0.161D-01-0.414D-01 0.190D+00-0.726D+00 0.157D+01
 Gap=     0.510 Goal=   None    Shift=    0.000
 RMSDP=2.54D-08 MaxDP=1.21D-07 DE=-2.56D-13 OVMax= 0.00D+00

 Cycle  13  Pass 1  IDiag  1:
 E= -165.468477946338     Delta-E=        0.000000000000 Rises=F Damp=F
 DIIS: error= 4.42D-09 at cycle  13 NSaved=  13.
 NSaved=13 IEnMin=13 EnMin= -165.468477946338     IErMin=13 ErrMin= 4.42D-09
 ErrMax= 4.42D-09 EMaxC= 1.00D-01 BMatC= 3.03D-16 BMatP= 1.00D-14
 IDIUse=1 WtCom= 1.00D+00 WtEn= 0.00D+00
 Coeff-Com:  0.345D-05-0.191D-04 0.881D-04 0.109D-03-0.614D-03-0.242D-03
 Coeff-Com:  0.257D-02-0.411D-02 0.109D-01-0.516D-01 0.211D+00-0.562D+00
 Coeff-Com:  0.139D+01
 Coeff:      0.345D-05-0.191D-04 0.881D-04 0.109D-03-0.614D-03-0.242D-03
 Coeff:      0.257D-02-0.411D-02 0.109D-01-0.516D-01 0.211D+00-0.562D+00
 Coeff:      0.139D+01
 Gap=     0.510 Goal=   None    Shift=    0.000
 RMSDP=3.28D-09 MaxDP=1.61D-08 DE=-1.99D-13 OVMax= 0.00D+00

 SCF Done:  E(RHF) =  -165.468477946     A.U. after   13 cycles
             Convg  =    0.3281D-08             -V/T =  2.0093
 KE= 1.639497123367D+02 PE=-5.046979852300D+02 EE= 1.177593411282D+02
 Leave Link  502 at Tue Jul 13 01:14:38 2021, MaxMem=    8388608 cpu:       0.0
 (Enter C:\G09W\l701.exe)
 Compute integral first derivatives.
 ... and contract with generalized density number  0.
 Leave Link  701 at Tue Jul 13 01:14:38 2021, MaxMem=    8388608 cpu:       0.0
 (Enter C:\G09W\l702.exe)
 L702 exits ... SP integral derivatives will be done elsewhere.
 Leave Link  702 at Tue Jul 13 01:14:38 2021, MaxMem=    8388608 cpu:       0.0
 (Enter C:\G09W\l703.exe)
 Compute integral first derivatives, UseDBF=F ICtDFT=           0.
 Integral derivatives from FoFDir, PRISM(SPDF).
 Calling FoFJK, ICntrl=      2127 FMM=F ISym2X=1 I1Cent= 0 IOpClX= 0 NMat=1 NMatS=1 NMatT=0.
 FoFCou: FMM=F IPFlag=           0 FMFlag=      100000 FMFlg1=         800
         NFxFlg=           0 DoJE=F BraDBF=F KetDBF=F FulRan=T
         Omega=  0.000000  0.000000  1.000000  0.000000  0.000000 ICntrl=    2127 IOpCl=  0
         NMat0=    1 NMatS0=    1 NMatT0=    0 NMatD0=    1 NMtDS0=    0 NMtDT0=    0
         I1Cent=           0 NGrid=           0.
 Petite list used in FoFCou.
 Leave Link  703 at Tue Jul 13 01:14:38 2021, MaxMem=    8388608 cpu:       0.0
 (Enter C:\G09W\l716.exe)
 Dipole        = 3.57912719D-01 7.40068506D-01 1.33542653D-32
 ***** Axes restored to original set *****
 -------------------------------------------------------------------
 Center     Atomic                   Forces (Hartrees/Bohr)
 Number     Number              X              Y              Z
 -------------------------------------------------------------------
      1        1          -0.025138373   -0.002021783    0.000000000
      2        7           0.012072877    0.075217119    0.000000000
      3        6          -0.000794435   -0.127696904    0.000000000
      4        8           0.013859930    0.054501568    0.000000000
 -------------------------------------------------------------------
 Cartesian Forces:  Max     0.127696904 RMS     0.046465977
 Leave Link  716 at Tue Jul 13 01:14:39 2021, MaxMem=    8388608 cpu:       0.0
 (Enter C:\G09W\l103.exe)

 GradGradGradGradGradGradGradGradGradGradGradGradGradGradGradGradGradGrad
 Berny optimization.
 Using GEDIIS/GDIIS optimizer.
 Internal  Forces:  Max     0.097020977 RMS     0.050351729
 Search for a local minimum.
 Step number   3 out of a maximum of   20
 All quantities printed in internal units (Hartrees-Bohrs-Radians)
 RMS Force = .50352D-01 SwitMx=.10000D-02 MixMth= 1
 Mixed Optimization -- RFO/linear search
 Update second derivatives using D2CorX and points    1    2    3
 The second derivative matrix:
                          R1        R2        R3        A1        A2
           R1           0.50347
           R2           0.08193   0.55410
           R3           0.05916   0.13168   1.35916
           A1           0.01579   0.02345   0.02500   0.16589
           A2           0.04657   0.17548   0.07170   0.02447   0.27371
           D1           0.00000   0.00000   0.00000   0.00000   0.00000
                          D1
           D1           0.02283
 ITU=  0  1  0
 Use linear search instead of GDIIS.
 Linear search step of   0.200 exceeds DXMaxT=   0.084 scaled by   0.841
 Quartic linear search produced a step of  1.68179.
 Iteration  1 RMS(Cart)=  0.07962130 RMS(Int)=  0.00546014
 Iteration  2 RMS(Cart)=  0.00558465 RMS(Int)=  0.00000450
 Iteration  3 RMS(Cart)=  0.00000553 RMS(Int)=  0.00000000
 Iteration  4 RMS(Cart)=  0.00000000 RMS(Int)=  0.00000000
 ClnCor:  largest displacement from symmetrization is 3.92D-09 for atom     2.
 Variable       Old X    -DE/DX   Delta X   Delta X   Delta X     New X
                                 (Linear)    (Quad)   (Total)
    R1        1.93051   0.02507   0.03214   0.00000   0.03214   1.96265
    R2        2.53658  -0.06247  -0.02763   0.00000  -0.02763   2.50895
    R3        2.21263   0.03521   0.01926   0.00000   0.01926   2.23190
    A1        1.93950   0.00525   0.01942   0.00000   0.01942   1.95892
    A2        2.39483   0.09702   0.16044   0.00000   0.16044   2.55526
    D1        3.14159   0.00000   0.00000   0.00000   0.00000   3.14159
         Item               Value     Threshold  Converged?
 Maximum Force            0.097021     0.000450     NO 
 RMS     Force            0.050352     0.000300     NO 
 Maximum Displacement     0.111537     0.001800     NO 
 RMS     Displacement     0.079000     0.001200     NO 
 Predicted change in Energy=-1.493945D-02
 GradGradGradGradGradGradGradGradGradGradGradGradGradGradGradGradGradGrad

 Leave Link  103 at Tue Jul 13 01:14:39 2021, MaxMem=    8388608 cpu:       0.0
 (Enter C:\G09W\l202.exe)
                          Input orientation:                          
 ---------------------------------------------------------------------
 Center     Atomic      Atomic             Coordinates (Angstroms)
 Number     Number       Type             X           Y           Z
 ---------------------------------------------------------------------
      1          1           0       -0.056218    0.028016    0.000000
      2          7           0        0.980493   -0.034439    0.000000
      3          6           0        1.555954    1.162047    0.000000
      4          8           0        2.571286    1.765391    0.000000
 ---------------------------------------------------------------------
                    Distance matrix (angstroms):
                    1          2          3          4
     1  H    0.000000
     2  N    1.038590   0.000000
     3  C    1.971071   1.327680   0.000000
     4  O    3.149960   2.402085   1.181069   0.000000
 Stoichiometry    CHNO
 Framework group  CS[SG(CHNO)]
 Deg. of freedom     5
 Full point group                 CS      NOp   2
 RotChk:  IX=0 Diff= 3.25D-02
 Largest Abelian subgroup         CS      NOp   2
 Largest concise Abelian subgroup C1      NOp   1
                         Standard orientation:                         
 ---------------------------------------------------------------------
 Center     Atomic      Atomic             Coordinates (Angstroms)
 Number     Number       Type             X           Y           Z
 ---------------------------------------------------------------------
      1          1           0        1.955549   -0.005978    0.000000
      2          7           0        1.068827   -0.546713    0.000000
      3          6           0        0.000000    0.240906    0.000000
      4          8           0       -1.179667    0.298442    0.000000
 ---------------------------------------------------------------------
 Rotational constants (GHZ):    319.8005992     10.8103932     10.4569125
 Leave Link  202 at Tue Jul 13 01:14:39 2021, MaxMem=    8388608 cpu:       0.0
 (Enter C:\G09W\l301.exe)
 Standard basis: STO-3G (5D, 7F)
 Ernie: Thresh=  0.10000D-02 Tol=  0.10000D-05 Strict=F.
 There are    13 symmetry adapted basis functions of A'  symmetry.
 There are     3 symmetry adapted basis functions of A"  symmetry.
 Integral buffers will be    262144 words long.
 Raffenetti 1 integral format.
 Two-electron integral symmetry is turned on.
    16 basis functions,    48 primitive gaussians,    16 cartesian basis functions
    11 alpha electrons       11 beta electrons
       nuclear repulsion energy        57.1045777028 Hartrees.
 IExCor=    0 DFT=F Ex=HF Corr=None ExCW=0 ScaHFX=  1.000000
 ScaDFX=  1.000000  1.000000  1.000000  1.000000 ScalE2=  1.000000  1.000000
 IRadAn=      0 IRanWt=     -1 IRanGd=            0 ICorTp=0
 NAtoms=    4 NActive=    4 NUniq=    4 SFac= 1.00D+00 NAtFMM=   60 NAOKFM=F Big=F
 Leave Link  301 at Tue Jul 13 01:14:39 2021, MaxMem=    8388608 cpu:       0.0
 (Enter C:\G09W\l302.exe)
 NPDir=0 NMtPBC=     1 NCelOv=     1 NCel=       1 NClECP=     1 NCelD=      1
         NCelK=      1 NCelE2=     1 NClLst=     1 CellRange=     0.0.
 One-electron integrals computed using PRISM.
 NBasis=    16 RedAO= T  NBF=    13     3
 NBsUse=    16 1.00D-06 NBFU=    13     3
 Leave Link  302 at Tue Jul 13 01:14:40 2021, MaxMem=    8388608 cpu:       0.0
 (Enter C:\G09W\l303.exe)
 DipDrv:  MaxL=1.
 Leave Link  303 at Tue Jul 13 01:14:40 2021, MaxMem=    8388608 cpu:       0.0
 (Enter C:\G09W\l401.exe)
 Initial guess read from the read-write file.
 B after Tr=     0.000000    0.000000    0.000000
         Rot=    1.000000    0.000000    0.000000    0.000000 Ang=   0.00 deg.
 Guess basis will be translated and rotated to current coordinates.
 Initial guess orbital symmetries:
       Occupied  (A') (A') (A') (A') (A') (A') (A') (A") (A') (A')
                 (A")
       Virtual   (A') (A") (A') (A') (A')
 The electronic state of the initial guess is 1-A'.
 Generating alternative initial guess.
 Harris functional with IExCor=  205 diagonalized for initial guess.
 ExpMin= 1.69D-01 ExpMax= 1.31D+02 ExpMxC= 1.31D+02 IAcc=1 IRadAn=         1 AccDes= 0.00D+00
 HarFok:  IExCor=  205 AccDes= 0.00D+00 IRadAn=         1 IDoV= 1
 ScaDFX=  1.000000  1.000000  1.000000  1.000000
 FoFCou: FMM=F IPFlag=           0 FMFlag=      100000 FMFlg1=           0
         NFxFlg=           0 DoJE=T BraDBF=F KetDBF=T FulRan=T
         Omega=  0.000000  0.000000  1.000000  0.000000  0.000000 ICntrl=     500 IOpCl=  0
         NMat0=    1 NMatS0=    1 NMatT0=    0 NMatD0=    1 NMtDS0=    0 NMtDT0=    0
         I1Cent=           4 NGrid=           0.
 Petite list used in FoFCou.
 Harris En= -165.530788331184    
 Leave Link  401 at Tue Jul 13 01:14:40 2021, MaxMem=    8388608 cpu:       0.0
 (Enter C:\G09W\l502.exe)
 Closed shell SCF:
 Requested convergence on RMS density matrix=1.00D-08 within 999 cycles.
 Requested convergence on MAX density matrix=1.00D-06.
 Requested convergence on             energy=1.00D-06.
 No special actions if energy rises.
 Using DIIS extrapolation, IDIIS=  1040.
 Integral symmetry usage will be decided dynamically.
 Keep R1 ints in memory in canonical form, NReq=1815021.
 IEnd=     1005691 IEndB=     1005691 NGot=     8388608 MDV=     8374035
 LenX=     8374035 LenY=     8373153
 Symmetry not used in FoFDir.
 MinBra= 0 MaxBra= 1 Meth= 1.
 IRaf=       0 NMat=   1 IRICut=       1 DoRegI=T DoRafI=F ISym2E= 0 JSym2E=0.

 Cycle   1  Pass 1  IDiag  1:
 E= -165.469196576151    
 DIIS: error= 1.92D-02 at cycle   1 NSaved=   1.
 NSaved= 1 IEnMin= 1 EnMin= -165.469196576151     IErMin= 1 ErrMin= 1.92D-02
 ErrMax= 1.92D-02 EMaxC= 1.00D-01 BMatC= 6.61D-03 BMatP= 6.61D-03
 IDIUse=3 WtCom= 8.08D-01 WtEn= 1.92D-01
 Coeff-Com:  0.100D+01
 Coeff-En:   0.100D+01
 Coeff:      0.100D+01
 Recover alternate guess density for next cycle.
 RMSDP=2.39D-02 MaxDP=1.34D-01              OVMax= 0.00D+00

 Cycle   2  Pass 1  IDiag  1:
 E= -165.440443997454     Delta-E=        0.028752578697 Rises=F Damp=F
 Switch densities from cycles 1 and 2 for lowest energy.
 DIIS: error= 5.07D-02 at cycle   2 NSaved=   2.
 NSaved= 2 IEnMin= 1 EnMin= -165.469196576151     IErMin= 1 ErrMin= 1.92D-02
 ErrMax= 5.07D-02 EMaxC= 1.00D+00 BMatC= 4.69D-02 BMatP= 6.61D-03
 IDIUse=1 WtCom= 1.00D+00 WtEn= 0.00D+00
 Coeff-Com:  0.877D+00 0.123D+00
 Coeff:      0.877D+00 0.123D+00
 Gap=     0.528 Goal=   None    Shift=    0.000
 RMSDP=9.57D-03 MaxDP=5.44D-02 DE= 2.88D-02 OVMax= 0.00D+00

 Cycle   3  Pass 1  IDiag  1:
 E= -165.482262109136     Delta-E=       -0.041818111682 Rises=F Damp=F
 DIIS: error= 5.48D-03 at cycle   3 NSaved=   3.
 NSaved= 3 IEnMin= 3 EnMin= -165.482262109136     IErMin= 3 ErrMin= 5.48D-03
 ErrMax= 5.48D-03 EMaxC= 1.00D+00 BMatC= 6.12D-04 BMatP= 6.61D-03
 IDIUse=1 WtCom= 1.00D+00 WtEn= 0.00D+00
 Coeff-Com: -0.327D+00 0.379D-01 0.129D+01
 Coeff:     -0.327D+00 0.379D-01 0.129D+01
 Gap=     0.535 Goal=   None    Shift=    0.000
 RMSDP=3.95D-03 MaxDP=2.11D-02 DE=-4.18D-02 OVMax= 0.00D+00

 Cycle   4  Pass 1  IDiag  1:
 E= -165.483740826566     Delta-E=       -0.001478717430 Rises=F Damp=F
 DIIS: error= 1.49D-03 at cycle   4 NSaved=   4.
 NSaved= 4 IEnMin= 4 EnMin= -165.483740826566     IErMin= 4 ErrMin= 1.49D-03
 ErrMax= 1.49D-03 EMaxC= 1.00D+00 BMatC= 3.99D-05 BMatP= 6.12D-04
 IDIUse=1 WtCom= 1.00D+00 WtEn= 0.00D+00
 Coeff-Com: -0.437D-01-0.143D-01 0.129D+00 0.929D+00
 Coeff:     -0.437D-01-0.143D-01 0.129D+00 0.929D+00
 Gap=     0.534 Goal=   None    Shift=    0.000
 RMSDP=6.67D-04 MaxDP=3.37D-03 DE=-1.48D-03 OVMax= 0.00D+00

 Cycle   5  Pass 1  IDiag  1:
 E= -165.483816449799     Delta-E=       -0.000075623233 Rises=F Damp=F
 DIIS: error= 5.01D-04 at cycle   5 NSaved=   5.
 NSaved= 5 IEnMin= 5 EnMin= -165.483816449799     IErMin= 5 ErrMin= 5.01D-04
 ErrMax= 5.01D-04 EMaxC= 1.00D+00 BMatC= 6.26D-06 BMatP= 3.99D-05
 IDIUse=1 WtCom= 1.00D+00 WtEn= 0.00D+00
 Coeff-Com:  0.329D-01-0.129D-02-0.140D+00-0.823D-01 0.119D+01
 Coeff:      0.329D-01-0.129D-02-0.140D+00-0.823D-01 0.119D+01
 Gap=     0.534 Goal=   None    Shift=    0.000
 RMSDP=4.39D-04 MaxDP=2.43D-03 DE=-7.56D-05 OVMax= 0.00D+00

 Cycle   6  Pass 1  IDiag  1:
 E= -165.483837144807     Delta-E=       -0.000020695007 Rises=F Damp=F
 DIIS: error= 4.53D-04 at cycle   6 NSaved=   6.
 NSaved= 6 IEnMin= 6 EnMin= -165.483837144807     IErMin= 6 ErrMin= 4.53D-04
 ErrMax= 4.53D-04 EMaxC= 1.00D+00 BMatC= 1.73D-06 BMatP= 6.26D-06
 IDIUse=1 WtCom= 1.00D+00 WtEn= 0.00D+00
 Coeff-Com:  0.186D-01 0.214D-02-0.665D-01-0.185D+00 0.396D+00 0.835D+00
 Coeff:      0.186D-01 0.214D-02-0.665D-01-0.185D+00 0.396D+00 0.835D+00
 Gap=     0.534 Goal=   None    Shift=    0.000
 RMSDP=1.95D-04 MaxDP=1.07D-03 DE=-2.07D-05 OVMax= 0.00D+00

 Cycle   7  Pass 1  IDiag  1:
 E= -165.483842649526     Delta-E=       -0.000005504719 Rises=F Damp=F
 DIIS: error= 1.12D-04 at cycle   7 NSaved=   7.
 NSaved= 7 IEnMin= 7 EnMin= -165.483842649526     IErMin= 7 ErrMin= 1.12D-04
 ErrMax= 1.12D-04 EMaxC= 1.00D+00 BMatC= 3.45D-07 BMatP= 1.73D-06
 IDIUse=1 WtCom= 1.00D+00 WtEn= 0.00D+00
 Coeff-Com: -0.115D-01-0.398D-03 0.459D-01 0.786D-01-0.398D+00-0.245D+00
 Coeff-Com:  0.153D+01
 Coeff:     -0.115D-01-0.398D-03 0.459D-01 0.786D-01-0.398D+00-0.245D+00
 Coeff:      0.153D+01
 Gap=     0.534 Goal=   None    Shift=    0.000
 RMSDP=1.81D-04 MaxDP=9.26D-04 DE=-5.50D-06 OVMax= 0.00D+00

 Cycle   8  Pass 1  IDiag  1:
 E= -165.483844985522     Delta-E=       -0.000002335996 Rises=F Damp=F
 DIIS: error= 7.83D-05 at cycle   8 NSaved=   8.
 NSaved= 8 IEnMin= 8 EnMin= -165.483844985522     IErMin= 8 ErrMin= 7.83D-05
 ErrMax= 7.83D-05 EMaxC= 1.00D+00 BMatC= 7.14D-08 BMatP= 3.45D-07
 IDIUse=1 WtCom= 1.00D+00 WtEn= 0.00D+00
 Coeff-Com:  0.428D-02 0.132D-03-0.192D-01-0.460D-02 0.194D+00-0.979D-01
 Coeff-Com: -0.846D+00 0.177D+01
 Coeff:      0.428D-02 0.132D-03-0.192D-01-0.460D-02 0.194D+00-0.979D-01
 Coeff:     -0.846D+00 0.177D+01
 Gap=     0.534 Goal=   None    Shift=    0.000
 RMSDP=1.02D-04 MaxDP=5.35D-04 DE=-2.34D-06 OVMax= 0.00D+00

 Cycle   9  Pass 1  IDiag  1:
 E= -165.483845543316     Delta-E=       -0.000000557793 Rises=F Damp=F
 DIIS: error= 3.18D-05 at cycle   9 NSaved=   9.
 NSaved= 9 IEnMin= 9 EnMin= -165.483845543316     IErMin= 9 ErrMin= 3.18D-05
 ErrMax= 3.18D-05 EMaxC= 1.00D+00 BMatC= 9.75D-09 BMatP= 7.14D-08
 IDIUse=1 WtCom= 1.00D+00 WtEn= 0.00D+00
 Coeff-Com: -0.204D-02-0.745D-04 0.102D-01-0.111D-01-0.105D+00 0.102D+00
 Coeff-Com:  0.550D+00-0.162D+01 0.208D+01
 Coeff:     -0.204D-02-0.745D-04 0.102D-01-0.111D-01-0.105D+00 0.102D+00
 Coeff:      0.550D+00-0.162D+01 0.208D+01
 Gap=     0.534 Goal=   None    Shift=    0.000
 RMSDP=4.67D-05 MaxDP=2.61D-04 DE=-5.58D-07 OVMax= 0.00D+00

 Cycle  10  Pass 1  IDiag  1:
 E= -165.483845633424     Delta-E=       -0.000000090109 Rises=F Damp=F
 DIIS: error= 5.21D-06 at cycle  10 NSaved=  10.
 NSaved=10 IEnMin=10 EnMin= -165.483845633424     IErMin=10 ErrMin= 5.21D-06
 ErrMax= 5.21D-06 EMaxC= 1.00D+00 BMatC= 4.66D-10 BMatP= 9.75D-09
 IDIUse=1 WtCom= 1.00D+00 WtEn= 0.00D+00
 Coeff-Com:  0.636D-03 0.189D-04-0.330D-02 0.627D-02 0.335D-01-0.404D-01
 Coeff-Com: -0.199D+00 0.653D+00-0.105D+01 0.160D+01
 Coeff:      0.636D-03 0.189D-04-0.330D-02 0.627D-02 0.335D-01-0.404D-01
 Coeff:     -0.199D+00 0.653D+00-0.105D+01 0.160D+01
 Gap=     0.534 Goal=   None    Shift=    0.000
 RMSDP=8.40D-06 MaxDP=5.38D-05 DE=-9.01D-08 OVMax= 0.00D+00

 Cycle  11  Pass 1  IDiag  1:
 E= -165.483845636733     Delta-E=       -0.000000003309 Rises=F Damp=F
 DIIS: error= 8.26D-07 at cycle  11 NSaved=  11.
 NSaved=11 IEnMin=11 EnMin= -165.483845636733     IErMin=11 ErrMin= 8.26D-07
 ErrMax= 8.26D-07 EMaxC= 1.00D+00 BMatC= 1.21D-11 BMatP= 4.66D-10
 IDIUse=1 WtCom= 1.00D+00 WtEn= 0.00D+00
 Coeff-Com: -0.154D-03-0.711D-05 0.818D-03-0.164D-02-0.852D-02 0.114D-01
 Coeff-Com:  0.492D-01-0.168D+00 0.281D+00-0.546D+00 0.138D+01
 Coeff:     -0.154D-03-0.711D-05 0.818D-03-0.164D-02-0.852D-02 0.114D-01
 Coeff:      0.492D-01-0.168D+00 0.281D+00-0.546D+00 0.138D+01
 Gap=     0.534 Goal=   None    Shift=    0.000
 RMSDP=8.50D-07 MaxDP=5.70D-06 DE=-3.31D-09 OVMax= 0.00D+00

 Cycle  12  Pass 1  IDiag  1:
 E= -165.483845636784     Delta-E=       -0.000000000051 Rises=F Damp=F
 DIIS: error= 1.87D-07 at cycle  12 NSaved=  12.
 NSaved=12 IEnMin=12 EnMin= -165.483845636784     IErMin=12 ErrMin= 1.87D-07
 ErrMax= 1.87D-07 EMaxC= 1.00D+00 BMatC= 5.15D-13 BMatP= 1.21D-11
 IDIUse=1 WtCom= 1.00D+00 WtEn= 0.00D+00
 Coeff-Com:  0.440D-04 0.232D-05-0.238D-03 0.558D-03 0.231D-02-0.357D-02
 Coeff-Com: -0.137D-01 0.493D-01-0.858D-01 0.191D+00-0.642D+00 0.150D+01
 Coeff:      0.440D-04 0.232D-05-0.238D-03 0.558D-03 0.231D-02-0.357D-02
 Coeff:     -0.137D-01 0.493D-01-0.858D-01 0.191D+00-0.642D+00 0.150D+01
 Gap=     0.534 Goal=   None    Shift=    0.000
 RMSDP=1.40D-07 MaxDP=6.95D-07 DE=-5.11D-11 OVMax= 0.00D+00

 Cycle  13  Pass 1  IDiag  1:
 E= -165.483845636786     Delta-E=       -0.000000000002 Rises=F Damp=F
 DIIS: error= 3.56D-08 at cycle  13 NSaved=  13.
 NSaved=13 IEnMin=13 EnMin= -165.483845636786     IErMin=13 ErrMin= 3.56D-08
 ErrMax= 3.56D-08 EMaxC= 1.00D+00 BMatC= 1.52D-14 BMatP= 5.15D-13
[...]
 Quadrupole moment (field-independent basis, Debye-Ang):
   XX=            -12.9063   YY=            -18.5109   ZZ=            -14.8060
   XY=              1.5225   XZ=              0.0000   YZ=              0.0000
 Traceless Quadrupole moment (field-independent basis, Debye-Ang):
   XX=              2.5014   YY=             -3.1032   ZZ=              0.6018
   XY=              1.5225   XZ=              0.0000   YZ=              0.0000
 Octapole moment (field-independent basis, Debye-Ang**2):
  XXX=              3.8239  YYY=              5.9793  ZZZ=              0.0000  XYY=             -0.4204
  XXY=             -1.7520  XXZ=              0.0000  XZZ=             -1.1306  YZZ=              1.4394
  YYZ=              0.0000  XYZ=              0.0000
 Hexadecapole moment (field-independent basis, Debye-Ang**3):
 XXXX=            -43.1790 YYYY=            -68.7746 ZZZZ=             -9.4489 XXXY=             19.8824
 XXXZ=              0.0000 YYYX=             25.8924 YYYZ=              0.0000 ZZZX=              0.0000
 ZZZY=              0.0000 XXYY=            -19.7004 XXZZ=            -10.7053 YYZZ=            -12.3584
 XXYZ=              0.0000 YYXZ=              0.0000 ZZXY=              7.9327
 N-N= 5.818995624915D+01 E-N=-5.059687773991D+02  KE= 1.639302411696D+02
 Symmetry A'   KE= 1.562980883225D+02
 Symmetry A"   KE= 7.632152847029D+00
  Exact polarizability:  13.704  -8.504  12.568   0.000   0.000   2.537
 Approx polarizability:  16.146 -13.724  19.997   0.000   0.000   1.663
 No NMR shielding tensors so no spin-rotation constants.
 Leave Link  601 at Tue Jul 13 01:15:01 2021, MaxMem=    8388608 cpu:       0.0
 (Enter C:\G09W\l701.exe)
 Compute integral second derivatives.
 ... and contract with generalized density number  0.
 Leave Link  701 at Tue Jul 13 01:15:01 2021, MaxMem=    8388608 cpu:       0.0
 (Enter C:\G09W\l702.exe)
 L702 exits ... SP integral derivatives will be done elsewhere.
 Leave Link  702 at Tue Jul 13 01:15:01 2021, MaxMem=    8388608 cpu:       0.0
 (Enter C:\G09W\l703.exe)
 Compute integral second derivatives, UseDBF=F ICtDFT=           0.
 Integral derivatives from FoFDir, PRISM(SPDF).
 Calling FoFJK, ICntrl=    100127 FMM=F ISym2X=1 I1Cent= 0 IOpClX= 0 NMat=1 NMatS=1 NMatT=0.
 FoFCou: FMM=F IPFlag=           0 FMFlag=      100000 FMFlg1=         800
         NFxFlg=           0 DoJE=F BraDBF=F KetDBF=F FulRan=T
         Omega=  0.000000  0.000000  1.000000  0.000000  0.000000 ICntrl=  100127 IOpCl=  0
         NMat0=    1 NMatS0=    1 NMatT0=    0 NMatD0=    1 NMtDS0=    0 NMtDT0=    0
         I1Cent=           0 NGrid=           0.
 Petite list used in FoFCou.
 Leave Link  703 at Tue Jul 13 01:15:01 2021, MaxMem=    8388608 cpu:       0.0
 (Enter C:\G09W\l716.exe)
 Dipole        = 6.30521576D-01 2.66530733D-01-4.56603310D-32
 Polarizability= 1.37042250D+01-8.50429514D+00 1.25679878D+01
                -3.09012513D-31 5.17786660D-32 2.53685561D+00
 HyperPolar    = 1.74338589D+01-2.08155907D+00-3.64733699D+00
                 1.11340111D+01 7.77568669D-31-5.59491961D-31
                 4.71818516D-31-1.92228052D+00 3.34482248D+00
                 1.83970504D-32
 Full mass-weighted force constant matrix:
 Low frequencies ---  -14.9336  -11.8501   -0.0012   -0.0008   -0.0003   19.4825
 Low frequencies ---  534.1916  579.2349 1044.6580
 Harmonic frequencies (cm**-1), IR intensities (KM/Mole), Raman scattering
 activities (A**4/AMU), depolarization ratios for plane and unpolarized
 incident light, reduced masses (AMU), force constants (mDyne/A),
 and normal coordinates:
                     1                      2                      3
                    A'                     A"                     A'
 Frequencies --   534.1915               579.2344              1044.6580
 Red. masses --     3.4293                 5.4227                 1.6130
 Frc consts  --     0.5766                 1.0719                 1.0372
 IR Inten    --    51.5748                 7.4939               252.6017
  Atom  AN      X      Y      Z        X      Y      Z        X      Y      Z
     1   1     0.00   0.89   0.00     0.00   0.00   0.79    -0.15   0.96   0.00
     2   7     0.13   0.00   0.00     0.00   0.00   0.16    -0.04  -0.16   0.00
     3   6    -0.30  -0.26   0.00     0.00   0.00  -0.55     0.09   0.12   0.00
     4   8     0.11   0.14   0.00     0.00   0.00   0.22    -0.03  -0.02   0.00
                     4                      5                      6
                    A'                     A'                     A'
 Frequencies --  1393.8951              2510.1633              3959.5174
 Red. masses --     6.5941                 9.7537                 1.0790
 Frc consts  --     7.5486                36.2097                 9.9673
 IR Inten    --     1.0098               391.0119                62.4671
  Atom  AN      X      Y      Z        X      Y      Z        X      Y      Z
     1   1     0.41  -0.66   0.00    -0.28   0.42   0.00     0.99   0.13   0.00
     2   7     0.31  -0.35   0.00    -0.16   0.17   0.00    -0.07   0.00   0.00
     3   6    -0.01   0.05   0.00     0.53  -0.55   0.00     0.00  -0.01   0.00
     4   8    -0.29   0.31   0.00    -0.24   0.23   0.00     0.00   0.00   0.00

 -------------------
 - Thermochemistry -
 -------------------
 Temperature   298.150 Kelvin.  Pressure   1.00000 Atm.
 Atom     1 has atomic number  1 and mass   1.00783
 Atom     2 has atomic number  7 and mass  14.00307
 Atom     3 has atomic number  6 and mass  12.00000
 Atom     4 has atomic number  8 and mass  15.99491
 Molecular mass:    43.00581 amu.
 Principal axes and moments of inertia in atomic units:
                           1         2         3
     Eigenvalues --     2.82431 167.40875 170.23306
           X           -0.65963   0.75159   0.00000
           Y            0.75159   0.65963   0.00000
           Z            0.00000   0.00000   1.00000
 This molecule is an asymmetric top.
 Rotational symmetry number  1.
 Rotational temperatures (Kelvin)     30.66727     0.51738     0.50880
 Rotational constants (GHZ):         639.00298    10.78045    10.60159
 Zero-point vibrational energy      59942.8 (Joules/Mol)
                                   14.32668 (Kcal/Mol)
 Warning -- explicit consideration of   2 degrees of freedom as
           vibrations may cause significant error
 Vibrational temperatures:    768.58   833.39  1503.03  2005.50  3611.56
          (Kelvin)           5696.86
 
 Zero-point correction=                           0.022831 (Hartree/Particle)
 Thermal correction to Energy=                    0.026074
 Thermal correction to Enthalpy=                  0.027018
 Thermal correction to Gibbs Free Energy=        -0.000250
 Sum of electronic and zero-point Energies=           -165.480087
 Sum of electronic and thermal Energies=              -165.476844
 Sum of electronic and thermal Enthalpies=            -165.475900
 Sum of electronic and thermal Free Energies=         -165.503168
 
                     E (Thermal)             CV                S
                      KCal/Mol        Cal/Mol-Kelvin    Cal/Mol-Kelvin
 Total                   16.362              8.653             57.391
 Electronic               0.000              0.000              0.000
 Translational            0.889              2.981             37.203
 Rotational               0.889              2.981             19.027
 Vibrational             14.584              2.691              1.161
 Vibration     1          0.889              1.174              0.578
 Vibration     2          0.936              1.076              0.487
                       Q            Log10(Q)             Ln(Q)
 Total Bot       0.130306D+01          0.114963          0.264712
 Total V=0       0.413505D+11         10.616481         24.445351
 Vib (Bot)       0.366019D-10        -10.436496        -24.030921
 Vib (Bot)    1  0.298215D+00         -0.525471         -1.209941
 Vib (Bot)    2  0.263277D+00         -0.579587         -1.334549
 Vib (V=0)       0.116151D+01          0.065022          0.149718
 Vib (V=0)    1  0.108218D+01          0.034299          0.078976
 Vib (V=0)    2  0.106508D+01          0.027382          0.063049
 Electronic      0.100000D+01          0.000000          0.000000
 Translational   0.110853D+08          7.044746         16.221127
 Rotational      0.321154D+04          3.506713          8.074506
 
                                                                  T1
                                                             IR Spectrum
 
     3                                              2                                   1          1                                 
     9                                              5                                   3          0              55                 
     6                                              1                                   9          4              73                 
     0                                              0                                   4          5              94                 
 
     X                                              X                                   X          X              XX                 
     X                                              X                                              X               X                 
     X                                              X                                              X               X                 
                                                    X                                              X                                 
                                                    X                                              X                                 
                                                    X                                              X                                 
                                                    X                                              X                                 
                                                    X                                              X                                 
                                                    X                                              X                                 
                                                    X                                              X                                 
                                                    X                                              X                                 
                                                    X                                              X                                 
                                                    X                                              X                                 
                                                    X                                                                                
                                                    X                                                                                
                                                    X                                                                                
                                                    X                                                                                
                                                    X                                                                                
                                                    X                                                                                
                                                    X                                                                                
 
 ***** Axes restored to original set *****
 -------------------------------------------------------------------
 Center     Atomic                   Forces (Hartrees/Bohr)
 Number     Number              X              Y              Z
 -------------------------------------------------------------------
      1        1          -0.000029015   -0.000068727    0.000000000
      2        7           0.000011067    0.000069289    0.000000000
      3        6          -0.000277720   -0.000241608    0.000000000
      4        8           0.000295668    0.000241046    0.000000000
 -------------------------------------------------------------------
 Cartesian Forces:  Max     0.000295668 RMS     0.000155862
 Force constants in Cartesian coordinates: 
                1             2             3             4             5 
      1  0.552776D+00
      2 -0.516161D-01  0.429770D-01
      3  0.000000D+00  0.000000D+00  0.149278D-02
      4 -0.530123D+00  0.127023D+00  0.000000D+00  0.923535D+00
      5  0.290017D-01  0.842166D-02  0.000000D+00  0.336231D+00  0.539741D+00
      6  0.000000D+00  0.000000D+00  0.417848D-02  0.000000D+00  0.000000D+00
      7 -0.354999D-01 -0.854528D-01  0.000000D+00 -0.389857D+00 -0.312781D+00
      8  0.135794D-01 -0.529538D-01  0.000000D+00 -0.403975D+00 -0.505653D+00
      9  0.000000D+00  0.000000D+00 -0.123256D-01  0.000000D+00  0.000000D+00
     10  0.128472D-01  0.100463D-01  0.000000D+00 -0.355407D-02 -0.524519D-01
     11  0.903493D-02  0.155512D-02  0.000000D+00 -0.592783D-01 -0.425104D-01
     12  0.000000D+00  0.000000D+00  0.665438D-02  0.000000D+00  0.000000D+00
                6             7             8             9            10 
      6  0.119688D-01
      7  0.000000D+00  0.103170D+01
      8  0.000000D+00  0.940733D+00  0.117110D+01
      9 -0.349431D-01  0.000000D+00  0.000000D+00  0.102249D+00
     10  0.000000D+00 -0.606344D+00 -0.550338D+00  0.000000D+00  0.597051D+00
     11  0.000000D+00 -0.542500D+00 -0.612490D+00  0.000000D+00  0.592743D+00
     12  0.187958D-01  0.000000D+00  0.000000D+00 -0.549805D-01  0.000000D+00
               11            12 
     11  0.653445D+00
     12  0.000000D+00  0.295303D-01
 Force constants in internal coordinates: 
                1             2             3             4             5 
      1  0.556378D+00
      2 -0.193310D-01  0.949141D+00
      3 -0.139789D-01  0.656350D-01  0.121866D+01
      4  0.557834D-01  0.161344D+00 -0.202408D-01  0.150781D+00
      5  0.459656D-02  0.466212D-01  0.253836D-02  0.287991D-01  0.159848D+00
      6  0.000000D+00  0.000000D+00  0.000000D+00  0.000000D+00  0.000000D+00
                6 
      6  0.470166D-02
 Leave Link  716 at Tue Jul 13 01:15:02 2021, MaxMem=    8388608 cpu:       0.0
 (Enter C:\G09W\l103.exe)

 GradGradGradGradGradGradGradGradGradGradGradGradGradGradGradGradGradGrad
 Berny optimization.
 Red2BG is reusing G-inverse.
 Internal  Forces:  Max     0.000378534 RMS     0.000170745
 Search for a local minimum.
 Step number   1 out of a maximum of    2
 All quantities printed in internal units (Hartrees-Bohrs-Radians)
 Second derivative matrix not updated -- analytic derivatives used.
 The second derivative matrix:
                          R1        R2        R3        A1        A2
           R1           0.55638
           R2          -0.01933   0.94914
           R3          -0.01398   0.06563   1.21866
           A1           0.05578   0.16134  -0.02024   0.15078
           A2           0.00460   0.04662   0.00254   0.02880   0.15985
           D1           0.00000   0.00000   0.00000   0.00000   0.00000
                          D1
           D1           0.00470
 ITU=  0
     Eigenvalues ---    0.00470   0.10434   0.16305   0.56361   0.96912
     Eigenvalues ---    1.23468
 Angle between quadratic step and forces=  54.15 degrees.
 Linear search not attempted -- first point.
 Iteration  1 RMS(Cart)=  0.00107264 RMS(Int)=  0.00000086
 Iteration  2 RMS(Cart)=  0.00000076 RMS(Int)=  0.00000000
 ClnCor:  largest displacement from symmetrization is 3.53D-14 for atom     3.
 Variable       Old X    -DE/DX   Delta X   Delta X   Delta X     New X
                                 (Linear)    (Quad)   (Total)
    R1        1.95664   0.00002   0.00000  -0.00010  -0.00010   1.95654
    R2        2.35333   0.00001   0.00000  -0.00021  -0.00021   2.35311
    R3        2.23483   0.00038   0.00000   0.00035   0.00035   2.23518
    A1        1.99984   0.00014   0.00000   0.00142   0.00142   2.00126
    A2        2.96296  -0.00011   0.00000  -0.00086  -0.00086   2.96210
    D1        3.14159   0.00000   0.00000   0.00000   0.00000   3.14159
         Item               Value     Threshold  Converged?
 Maximum Force            0.000379     0.000450     YES
 RMS     Force            0.000171     0.000300     YES
 Maximum Displacement     0.001667     0.001800     YES
 RMS     Displacement     0.001072     0.001200     YES
 Predicted change in Energy=-2.091621D-07
 Optimization completed.
    -- Stationary point found.
                           ----------------------------
                           !   Optimized Parameters   !
                           ! (Angstroms and Degrees)  !
 --------------------------                            --------------------------
 ! Name  Definition              Value          Derivative Info.                !
 --------------------------------------------------------------------------------
 ! R1    R(1,2)                  1.0354         -DE/DX =    0.0                 !
 ! R2    R(2,3)                  1.2453         -DE/DX =    0.0                 !
 ! R3    R(3,4)                  1.1826         -DE/DX =    0.0004              !
 ! A1    A(1,2,3)              114.5826         -DE/DX =    0.0001              !
 ! A2    A(2,3,4)              169.7651         -DE/DX =   -0.0001              !
 ! D1    D(1,2,3,4)            180.0            -DE/DX =    0.0                 !
 --------------------------------------------------------------------------------
 GradGradGradGradGradGradGradGradGradGradGradGradGradGradGradGradGradGrad

 Leave Link  103 at Tue Jul 13 01:15:02 2021, MaxMem=    8388608 cpu:       0.0
 (Enter C:\G09W\l9999.exe)

 Test job not archived.
 1|1|UNPC-DESKTOP-RNC6JTU|Freq|RHF|STO-3G|C1H1N1O1|BNULK|13-Jul-2021|0|
 |#P Geom=AllCheck Guess=TCheck SCRF=Check Test GenChk RHF/STO-3G Freq|
 |T1||0,1|H,-0.0518987913,0.1167902571,0.|N,0.9711173026,-0.0429442368,
 0.|C,1.6576818979,0.9960305243,0.|O,2.4746150708,1.8511395655,0.||Vers
 ion=IA32W-G09RevC.01|State=1-A'|HF=-165.5029184|RMSD=6.691e-010|RMSF=1
 .559e-004|ZeroPoint=0.022831|Thermal=0.026074|Dipole=-0.6345,0.256916,
 0.|DipoleDeriv=0.1939362,0.1286812,0.,0.2104457,0.3290068,0.,0.,0.,0.3
 201842,-0.6819601,-0.3831442,0.,-0.7732938,-0.9825767,0.,0.,0.,-0.6117
 697,1.084305,0.6976403,0.,0.9043188,1.3169423,0.,0.,0.,0.5466878,-0.59
 62811,-0.4431772,0.,-0.3414707,-0.6633724,0.,0.,0.,-0.2551024|Polar=13
 .4454603,8.5176343,12.8267525,0.,0.,2.5368556|HyperPolar=-17.3304309,-
 2.4530801,3.4079037,11.2949299,0.,0.,0.,1.8712168,3.3736549,0.|PG=CS [
 SG(C1H1N1O1)]|NImag=0||0.55277614,-0.05161609,0.04297705,0.,0.,0.00149
 278,-0.53012343,0.12702263,0.,0.92353498,0.02900172,0.00842166,0.,0.33
 623100,0.53974129,0.,0.,0.00417848,0.,0.,0.01196878,-0.03549995,-0.085
 45285,0.,-0.38985748,-0.31278082,0.,1.03170178,0.01357944,-0.05295383,
 0.,-0.40397536,-0.50565250,0.,0.94073349,1.17109584,0.,0.,-0.01232564,
 0.,0.,-0.03494309,0.,0.,0.10224926,0.01284724,0.01004631,0.,-0.0035540
 7,-0.05245191,0.,-0.60634436,-0.55033757,0.,0.59705119,0.00903493,0.00
 155512,0.,-0.05927827,-0.04251045,0.,-0.54249983,-0.61248951,0.,0.5927
 4317,0.65344484,0.,0.,0.00665438,0.,0.,0.01879583,0.,0.,-0.05498052,0.
 ,0.,0.02953031||0.00002902,0.00006873,0.,-0.00001107,-0.00006929,0.,0.
 00027772,0.00024161,0.,-0.00029567,-0.00024105,0.|||@


 SEE YOU NOW,
 YOUR BAIT OF FALSEHOOD TAKES THIS CARP OF TRUTH.
 AND THUS DO WE OF WISDOM AND OF REACH...
 BY INDIRECTIONS FIND DIRECTIONS OUT.    -- HAMLET, II, 1
 Job cpu time:  0 days  0 hours  0 minutes  4.0 seconds.
 File lengths (MBytes):  RWF=      5 Int=      0 D2E=      0 Chk=      1 Scr=      1
 Normal termination of Gaussian 09 at Tue Jul 13 01:15:02 2021.
