 Entering Gaussian System, Link 0=G09
 Input=HNCO(T1).gjf
 Output=E:\ChemKun\test\HNCO(T1).out
 Initial command:
 C:\G09W\l1.exe .\gxx.inp E:\ChemKun\test\HNCO(T1).out /scrdir=.\
 Entering Link 1 = C:\G09W\l1.exe PID=     22200.
  
 Copyright (c) 1988,1990,1992,1993,1995,1998,2003,2009,2011,
            Gaussian, Inc.  All Rights Reserved.
  
 This is part of the Gaussian(R) 09 program.  It is based on
 the Gaussian(R) 03 system (copyright 2003, Gaussian, Inc.),
 the Gaussian(R) 98 system (copyright 1998, Gaussian, Inc.),
 the Gaussian(R) 94 system (copyright 1995, Gaussian, Inc.),
 the Gaussian 92(TM) system (copyright 1992, Gaussian, Inc.),
 the Gaussian 90(TM) system (copyright 1990, Gaussian, Inc.),
 the Gaussian 88(TM) system (copyright 1988, Gaussian, Inc.),
 the Gaussian 86(TM) system (copyright 1986, Carnegie Mellon
 University), and the Gaussian 82(TM) system (copyright 1983,
 Carnegie Mellon University). Gaussian is a federally registered
 trademark of Gaussian, Inc.
  
 This software contains proprietary and confidential information,
 including trade secrets, belonging to Gaussian, Inc.
  
 This software is provided under written license and may be
 used, copied, transmitted, or stored only in accord with that
 written license.
  
 The following legend is applicable only to US Government
 contracts under FAR:
  
                    RESTRICTED RIGHTS LEGEND
  
 Use, reproduction and disclosure by the US Government is
 subject to restrictions as set forth in subparagraphs (a)
 and (c) of the Commercial Computer Software - Restricted
 Rights clause in FAR 52.227-19.
  
 Gaussian, Inc.
 340 Quinnipiac St., Bldg. 40, Wallingford CT 06492
  
  
 ---------------------------------------------------------------
 Warning -- This program may not be used in any manner that
 competes with the business of Gaussian, Inc. or will provide
 assistance to any competitor of Gaussian, Inc.  The licensee
 of this program is prohibited from giving any competitor of
 Gaussian, Inc. access to this program.  By using this program,
 the user acknowledges that Gaussian, Inc. is engaged in the
 business of creating and licensing software in the field of
 computational chemistry and represents and warrants to the
 licensee that it is not a competitor of Gaussian, Inc. and that
 it will not use this program in any manner prohibited above.
 ---------------------------------------------------------------
  

 Cite this work as:
 Gaussian 09, Revision C.01,
 M. J. Frisch, G. W. Trucks, H. B. Schlegel, G. E. Scuseria, 
 M. A. Robb, J. R. Cheeseman, G. Scalmani, V. Barone, B. Mennucci, 
 G. A. Petersson, H. Nakatsuji, M. Caricato, X. Li, H. P. Hratchian, 
 A. F. Izmaylov, J. Bloino, G. Zheng, J. L. Sonnenberg, M. Hada, 
 M. Ehara, K. Toyota, R. Fukuda, J. Hasegawa, M. Ishida, T. Nakajima, 
 Y. Honda, O. Kitao, H. Nakai, T. Vreven, J. A. Montgomery, Jr., 
 J. E. Peralta, F. Ogliaro, M. Bearpark, J. J. Heyd, E. Brothers, 
 K. N. Kudin, V. N. Staroverov, T. Keith, R. Kobayashi, J. Normand, 
 K. Raghavachari, A. Rendell, J. C. Burant, S. S. Iyengar, J. Tomasi, 
 M. Cossi, N. Rega, J. M. Millam, M. Klene, J. E. Knox, J. B. Cross, 
 V. Bakken, C. Adamo, J. Jaramillo, R. Gomperts, R. E. Stratmann, 
 O. Yazyev, A. J. Austin, R. Cammi, C. Pomelli, J. W. Ochterski, 
 R. L. Martin, K. Morokuma, V. G. Zakrzewski, G. A. Voth, 
 P. Salvador, J. J. Dannenberg, S. Dapprich, A. D. Daniels, 
 O. Farkas, J. B. Foresman, J. V. Ortiz, J. Cioslowski, 
 and D. J. Fox, Gaussian, Inc., Wallingford CT, 2010.
 
 ******************************************
 Gaussian 09:  IA32W-G09RevC.01 23-Sep-2011
                16-Aug-2018 
 ******************************************
 %mem=64mb
 %chk=LiuKun1
 ----------------------------------------------
 #p freq=noraman hf/sto-3g scf=maxcycle=999 opt
 ----------------------------------------------
 1/18=20,19=15,38=1/1,3;
 2/9=110,12=2,17=6,18=5,40=1/2;
 3/6=3,11=9,16=1,25=1,30=1,71=1/1,2,3;
 4//1;
 5/5=2,7=999,38=5/2;
 6/7=2,8=2,9=2,10=2,28=1/1;
 7//1,2,3,16;
 1/18=20,19=15/3(2);
 2/9=110/2;
 99//99;
 2/9=110/2;
 3/6=3,11=9,16=1,25=1,30=1,71=1/1,2,3;
 4/5=5,16=3/1;
 5/5=2,7=999,38=5/2;
 7//1,2,3,16;
 1/18=20,19=15/3(-5);
 2/9=110/2;
 6/7=2,8=2,9=2,10=2,19=2,28=1/1;
 99/9=1/99;
 Leave Link    1 at Thu Aug 16 22:56:50 2018, MaxMem=    8388608 cpu:       1.0
 (Enter C:\G09W\l101.exe)
 --
 T1
 --
 Charge =  0 Multiplicity = 3
 Symbolic Z-Matrix:
 H                     0.        0.        0. 
 N                     1.00641   0.        0. 
 C                     1.47292   1.27252   0. 
 O                     2.57218   1.64849   0. 
 
 NAtoms=      4 NQM=        0 NQMF=       0 NMMI=      4 NMMIF=      0
                NMic=       0 NMicF=      0.
                    Isotopes and Nuclear Properties:
 (Nuclear quadrupole moments (NQMom) in fm**2, nuclear magnetic moments (NMagM)
  in nuclear magnetons)

  Atom         1           2           3           4
 IAtWgt=           1          14          12          16
 AtmWgt=   1.0078250  14.0030740  12.0000000  15.9949146
 NucSpn=           1           2           0           0
 AtZEff=   0.0000000   0.0000000   0.0000000   0.0000000
 NQMom=    0.0000000   2.0440000   0.0000000   0.0000000
 NMagM=    2.7928460   0.4037610   0.0000000   0.0000000
 Leave Link  101 at Thu Aug 16 22:56:50 2018, MaxMem=    8388608 cpu:       0.0
 (Enter C:\G09W\l103.exe)

 GradGradGradGradGradGradGradGradGradGradGradGradGradGradGradGradGradGrad
 Berny optimization.
 Initialization pass.
                           ----------------------------
                           !    Initial Parameters    !
                           ! (Angstroms and Degrees)  !
 --------------------------                            --------------------------
 ! Name  Definition              Value          Derivative Info.                !
 --------------------------------------------------------------------------------
 ! R1    R(1,2)                  1.0064         estimate D2E/DX2                !
 ! R2    R(2,3)                  1.3553         estimate D2E/DX2                !
 ! R3    R(3,4)                  1.1618         estimate D2E/DX2                !
 ! A1    A(1,2,3)              110.1331         estimate D2E/DX2                !
 ! A2    A(2,3,4)              129.0149         estimate D2E/DX2                !
 ! D1    D(1,2,3,4)            180.0            estimate D2E/DX2                !
 --------------------------------------------------------------------------------
 Trust Radius=3.00D-01 FncErr=1.00D-07 GrdErr=1.00D-07
 Number of steps in this run=     20 maximum allowed number of steps=    100.
 GradGradGradGradGradGradGradGradGradGradGradGradGradGradGradGradGradGrad

 Leave Link  103 at Thu Aug 16 22:56:50 2018, MaxMem=    8388608 cpu:       0.0
 (Enter C:\G09W\l202.exe)
                          Input orientation:                          
 ---------------------------------------------------------------------
 Center     Atomic      Atomic             Coordinates (Angstroms)
 Number     Number       Type             X           Y           Z
 ---------------------------------------------------------------------
      1          1           0        0.000000    0.000000    0.000000
      2          7           0        1.006410    0.000000    0.000000
      3          6           0        1.472920    1.272522    0.000000
      4          8           0        2.572185    1.648494    0.000000
 ---------------------------------------------------------------------
                    Distance matrix (angstroms):
                    1          2          3          4
     1  H    0.000000
     2  N    1.006410   0.000000
     3  C    1.946486   1.355339   0.000000
     4  O    3.055105   2.273584   1.161782   0.000000
 Stoichiometry    CHNO(3)
 Framework group  CS[SG(CHNO)]
 Deg. of freedom     5
 Full point group                 CS      NOp   2
 Largest Abelian subgroup         CS      NOp   2
 Largest concise Abelian subgroup C1      NOp   1
                         Standard orientation:                         
 ---------------------------------------------------------------------
 Center     Atomic      Atomic             Coordinates (Angstroms)
 Number     Number       Type             X           Y           Z
 ---------------------------------------------------------------------
      1          1           0        1.908491   -0.008185    0.000000
      2          7           0        1.032434   -0.503551    0.000000
      3          6           0        0.000000    0.374528    0.000000
      4          8           0       -1.141941    0.160734    0.000000
 ---------------------------------------------------------------------
 Rotational constants (GHZ):    181.3959708     11.9663239     11.2257819
 Leave Link  202 at Thu Aug 16 22:56:50 2018, MaxMem=    8388608 cpu:       0.0
 (Enter C:\G09W\l301.exe)
 Standard basis: STO-3G (5D, 7F)
 Ernie: Thresh=  0.10000D-02 Tol=  0.10000D-05 Strict=F.
 There are    13 symmetry adapted basis functions of A'  symmetry.
 There are     3 symmetry adapted basis functions of A"  symmetry.
 Integral buffers will be    262144 words long.
 Raffenetti 2 integral format.
 Two-electron integral symmetry is turned on.
    16 basis functions,    48 primitive gaussians,    16 cartesian basis functions
    12 alpha electrons       10 beta electrons
       nuclear repulsion energy        57.9933593049 Hartrees.
 IExCor=    0 DFT=F Ex=HF Corr=None ExCW=0 ScaHFX=  1.000000
 ScaDFX=  1.000000  1.000000  1.000000  1.000000 ScalE2=  1.000000  1.000000
 IRadAn=      0 IRanWt=     -1 IRanGd=            0 ICorTp=0
 NAtoms=    4 NActive=    4 NUniq=    4 SFac= 1.00D+00 NAtFMM=   60 NAOKFM=F Big=F
 Leave Link  301 at Thu Aug 16 22:56:50 2018, MaxMem=    8388608 cpu:       0.0
 (Enter C:\G09W\l302.exe)
 NPDir=0 NMtPBC=     1 NCelOv=     1 NCel=       1 NClECP=     1 NCelD=      1
         NCelK=      1 NCelE2=     1 NClLst=     1 CellRange=     0.0.
 One-electron integrals computed using PRISM.
 NBasis=    16 RedAO= T  NBF=    13     3
 NBsUse=    16 1.00D-06 NBFU=    13     3
 Leave Link  302 at Thu Aug 16 22:56:50 2018, MaxMem=    8388608 cpu:       0.0
 (Enter C:\G09W\l303.exe)
 DipDrv:  MaxL=1.
 Leave Link  303 at Thu Aug 16 22:56:50 2018, MaxMem=    8388608 cpu:       0.0
 (Enter C:\G09W\l401.exe)
 Harris functional with IExCor=  205 diagonalized for initial guess.
 ExpMin= 1.69D-01 ExpMax= 1.31D+02 ExpMxC= 1.31D+02 IAcc=1 IRadAn=         1 AccDes= 0.00D+00
 HarFok:  IExCor=  205 AccDes= 0.00D+00 IRadAn=         1 IDoV= 1
 ScaDFX=  1.000000  1.000000  1.000000  1.000000
 FoFCou: FMM=F IPFlag=           0 FMFlag=      100000 FMFlg1=           0
         NFxFlg=           0 DoJE=T BraDBF=F KetDBF=T FulRan=T
         Omega=  0.000000  0.000000  1.000000  0.000000  0.000000 ICntrl=     500 IOpCl=  0
         NMat0=    1 NMatS0=    1 NMatT0=    0 NMatD0=    1 NMtDS0=    0 NMtDT0=    0
         I1Cent=           4 NGrid=           0.
 Petite list used in FoFCou.
 Harris En= -165.350424803578    
 Initial guess orbital symmetries:
 Alpha Orbitals:
       Occupied  (A') (A') (A') (A') (A') (A') (A') (A") (A') (A')
                 (A") (A')
       Virtual   (A") (A') (A') (A')
 Beta  Orbitals:
       Occupied  (A') (A') (A') (A') (A') (A') (A') (A") (A') (A')
       Virtual   (A") (A') (A") (A') (A') (A')
 The electronic state of the initial guess is 3-A".
 Initial guess <Sx>= 0.0000 <Sy>= 0.0000 <Sz>= 1.0000 <S**2>= 2.0000 S= 1.0000
 Leave Link  401 at Thu Aug 16 22:56:50 2018, MaxMem=    8388608 cpu:       0.0
 (Enter C:\G09W\l502.exe)
 UHF open shell SCF:
 Requested convergence on RMS density matrix=1.00D-08 within 999 cycles.
 Requested convergence on MAX density matrix=1.00D-06.
 Requested convergence on             energy=1.00D-06.
 No special actions if energy rises.
 Using DIIS extrapolation, IDIIS=  1040.
 Integral symmetry usage will be decided dynamically.
 Keep R1 and R2 ints in memory in canonical form, NReq=1824344.
 IEnd=     1005691 IEndB=     1005691 NGot=     8388608 MDV=     8364719
 LenX=     8364719 LenY=     8363837
 Symmetry not used in FoFDir.
 MinBra= 0 MaxBra= 1 Meth= 1.
 IRaf=       0 NMat=   1 IRICut=       1 DoRegI=T DoRafI=F ISym2E= 0 JSym2E=0.

 Cycle   1  Pass 1  IDiag  1:
 E= -165.399883171778    
 DIIS: error= 2.88D-02 at cycle   1 NSaved=   1.
 NSaved= 1 IEnMin= 1 EnMin= -165.399883171778     IErMin= 1 ErrMin= 2.88D-02
 ErrMax= 2.88D-02 EMaxC= 1.00D-01 BMatC= 9.76D-02 BMatP= 9.76D-02
 IDIUse=3 WtCom= 7.12D-01 WtEn= 2.88D-01
 Coeff-Com:  0.100D+01
 Coeff-En:   0.100D+01
 Coeff:      0.100D+01
 Gap=     0.557 Goal=   None    Shift=    0.000
 Gap=     0.518 Goal=   None    Shift=    0.000
 GapD=    0.518 DampG=2.000 DampE=0.500 DampFc=1.0000 IDamp=-1.
 RMSDP=1.15D-02 MaxDP=7.53D-02              OVMax= 2.52D-02

 Cycle   2  Pass 1  IDiag  1:
 E= -165.430956062656     Delta-E=       -0.031072890879 Rises=F Damp=F
 DIIS: error= 1.72D-02 at cycle   2 NSaved=   2.
 NSaved= 2 IEnMin= 2 EnMin= -165.430956062656     IErMin= 2 ErrMin= 1.72D-02
 ErrMax= 1.72D-02 EMaxC= 1.00D-01 BMatC= 9.55D-03 BMatP= 9.76D-02
 IDIUse=3 WtCom= 8.28D-01 WtEn= 1.72D-01
 Coeff-Com: -0.150D+00 0.115D+01
 Coeff-En:   0.000D+00 0.100D+01
 Coeff:     -0.124D+00 0.112D+01
 Gap=     0.580 Goal=   None    Shift=    0.000
 Gap=     0.549 Goal=   None    Shift=    0.000
 RMSDP=5.60D-03 MaxDP=3.89D-02 DE=-3.11D-02 OVMax= 2.42D-02

 Cycle   3  Pass 1  IDiag  1:
 E= -165.438446467952     Delta-E=       -0.007490405296 Rises=F Damp=F
 DIIS: error= 1.07D-02 at cycle   3 NSaved=   3.
 NSaved= 3 IEnMin= 3 EnMin= -165.438446467952     IErMin= 3 ErrMin= 1.07D-02
 ErrMax= 1.07D-02 EMaxC= 1.00D-01 BMatC= 2.29D-03 BMatP= 9.55D-03
 IDIUse=3 WtCom= 8.93D-01 WtEn= 1.07D-01
 Coeff-Com: -0.194D-02-0.473D+00 0.147D+01
 Coeff-En:   0.000D+00 0.000D+00 0.100D+01
 Coeff:     -0.174D-02-0.422D+00 0.142D+01
 Gap=     0.591 Goal=   None    Shift=    0.000
 Gap=     0.561 Goal=   None    Shift=    0.000
 RMSDP=3.74D-03 MaxDP=3.88D-02 DE=-7.49D-03 OVMax= 6.76D-03

 Cycle   4  Pass 1  IDiag  1:
 E= -165.440767467123     Delta-E=       -0.002320999171 Rises=F Damp=F
 DIIS: error= 5.25D-03 at cycle   4 NSaved=   4.
 NSaved= 4 IEnMin= 4 EnMin= -165.440767467123     IErMin= 4 ErrMin= 5.25D-03
 ErrMax= 5.25D-03 EMaxC= 1.00D-01 BMatC= 6.77D-04 BMatP= 2.29D-03
 IDIUse=3 WtCom= 9.48D-01 WtEn= 5.25D-02
 Coeff-Com:  0.229D-01-0.319D+00 0.373D+00 0.923D+00
 Coeff-En:   0.000D+00 0.000D+00 0.000D+00 0.100D+01
 Coeff:      0.217D-01-0.302D+00 0.354D+00 0.927D+00
 Gap=     0.595 Goal=   None    Shift=    0.000
 Gap=     0.568 Goal=   None    Shift=    0.000
 RMSDP=1.71D-03 MaxDP=1.59D-02 DE=-2.32D-03 OVMax= 5.90D-03

 Cycle   5  Pass 1  IDiag  1:
 E= -165.441407724208     Delta-E=       -0.000640257085 Rises=F Damp=F
 DIIS: error= 3.21D-03 at cycle   5 NSaved=   5.
 NSaved= 5 IEnMin= 5 EnMin= -165.441407724208     IErMin= 5 ErrMin= 3.21D-03
 ErrMax= 3.21D-03 EMaxC= 1.00D-01 BMatC= 2.68D-04 BMatP= 6.77D-04
 IDIUse=3 WtCom= 9.68D-01 WtEn= 3.21D-02
 Coeff-Com: -0.482D-02 0.125D+00-0.271D+00-0.398D+00 0.155D+01
 Coeff-En:   0.000D+00 0.000D+00 0.000D+00 0.000D+00 0.100D+01
 Coeff:     -0.466D-02 0.121D+00-0.262D+00-0.385D+00 0.153D+01
 Gap=     0.596 Goal=   None    Shift=    0.000
 Gap=     0.571 Goal=   None    Shift=    0.000
 RMSDP=1.68D-03 MaxDP=2.07D-02 DE=-6.40D-04 OVMax= 1.78D-02

 Cycle   6  Pass 1  IDiag  1:
 E= -165.441920020963     Delta-E=       -0.000512296755 Rises=F Damp=F
 DIIS: error= 2.40D-03 at cycle   6 NSaved=   6.
 NSaved= 6 IEnMin= 6 EnMin= -165.441920020963     IErMin= 6 ErrMin= 2.40D-03
 ErrMax= 2.40D-03 EMaxC= 1.00D-01 BMatC= 1.64D-04 BMatP= 2.68D-04
 IDIUse=3 WtCom= 9.76D-01 WtEn= 2.40D-02
 Coeff-Com: -0.134D-01 0.101D+00 0.273D-01-0.598D+00-0.900D+00 0.238D+01
 Coeff-En:   0.000D+00 0.000D+00 0.000D+00 0.000D+00 0.000D+00 0.100D+01
 Coeff:     -0.131D-01 0.987D-01 0.266D-01-0.584D+00-0.878D+00 0.235D+01
 Gap=     0.600 Goal=   None    Shift=    0.000
 Gap=     0.576 Goal=   None    Shift=    0.000
 RMSDP=2.92D-03 MaxDP=3.41D-02 DE=-5.12D-04 OVMax= 3.29D-02

 Cycle   7  Pass 1  IDiag  1:
 E= -165.442484714683     Delta-E=       -0.000564693720 Rises=F Damp=F
 DIIS: error= 1.05D-03 at cycle   7 NSaved=   7.
 NSaved= 7 IEnMin= 7 EnMin= -165.442484714683     IErMin= 7 ErrMin= 1.05D-03
 ErrMax= 1.05D-03 EMaxC= 1.00D-01 BMatC= 3.57D-05 BMatP= 1.64D-04
 IDIUse=3 WtCom= 9.90D-01 WtEn= 1.05D-02
 Coeff-Com:  0.109D-01-0.151D+00 0.170D+00 0.479D+00 0.438D-01-0.159D+01
 Coeff-Com:  0.204D+01
 Coeff-En:   0.000D+00 0.000D+00 0.000D+00 0.000D+00 0.000D+00 0.000D+00
 Coeff-En:   0.100D+01
 Coeff:      0.108D-01-0.150D+00 0.169D+00 0.474D+00 0.433D-01-0.157D+01
 Coeff:      0.203D+01
 Gap=     0.602 Goal=   None    Shift=    0.000
 Gap=     0.579 Goal=   None    Shift=    0.000
 RMSDP=1.64D-03 MaxDP=1.89D-02 DE=-5.65D-04 OVMax= 1.87D-02

 Cycle   8  Pass 1  IDiag  1:
 E= -165.442600790516     Delta-E=       -0.000116075832 Rises=F Damp=F
 DIIS: error= 2.17D-04 at cycle   8 NSaved=   8.
 NSaved= 8 IEnMin= 8 EnMin= -165.442600790516     IErMin= 8 ErrMin= 2.17D-04
 ErrMax= 2.17D-04 EMaxC= 1.00D-01 BMatC= 3.16D-06 BMatP= 3.57D-05
 IDIUse=3 WtCom= 9.98D-01 WtEn= 2.17D-03
 Coeff-Com: -0.726D-02 0.115D+00-0.129D+00-0.361D+00 0.537D-01 0.114D+01
 Coeff-Com: -0.185D+01 0.204D+01
 Coeff-En:   0.000D+00 0.000D+00 0.000D+00 0.000D+00 0.000D+00 0.000D+00
 Coeff-En:   0.000D+00 0.100D+01
 Coeff:     -0.725D-02 0.114D+00-0.129D+00-0.360D+00 0.536D-01 0.114D+01
 Coeff:     -0.185D+01 0.204D+01
 Gap=     0.602 Goal=   None    Shift=    0.000
 Gap=     0.579 Goal=   None    Shift=    0.000
 RMSDP=3.45D-04 MaxDP=3.23D-03 DE=-1.16D-04 OVMax= 3.33D-03

 Cycle   9  Pass 1  IDiag  1:
 E= -165.442606198361     Delta-E=       -0.000005407846 Rises=F Damp=F
 DIIS: error= 6.32D-05 at cycle   9 NSaved=   9.
 NSaved= 9 IEnMin= 9 EnMin= -165.442606198361     IErMin= 9 ErrMin= 6.32D-05
 ErrMax= 6.32D-05 EMaxC= 1.00D-01 BMatC= 2.24D-07 BMatP= 3.16D-06
 IDIUse=1 WtCom= 1.00D+00 WtEn= 0.00D+00
 Coeff-Com:  0.271D-02-0.462D-01 0.458D-01 0.147D+00-0.480D-01-0.424D+00
 Coeff-Com:  0.791D+00-0.111D+01 0.164D+01
 Coeff:      0.271D-02-0.462D-01 0.458D-01 0.147D+00-0.480D-01-0.424D+00
 Coeff:      0.791D+00-0.111D+01 0.164D+01
 Gap=     0.602 Goal=   None    Shift=    0.000
 Gap=     0.580 Goal=   None    Shift=    0.000
 RMSDP=7.65D-05 MaxDP=7.07D-04 DE=-5.41D-06 OVMax= 4.00D-04

 Cycle  10  Pass 1  IDiag  1:
 E= -165.442606460636     Delta-E=       -0.000000262274 Rises=F Damp=F
 DIIS: error= 2.14D-05 at cycle  10 NSaved=  10.
 NSaved=10 IEnMin=10 EnMin= -165.442606460636     IErMin=10 ErrMin= 2.14D-05
 ErrMax= 2.14D-05 EMaxC= 1.00D-01 BMatC= 1.97D-08 BMatP= 2.24D-07
 IDIUse=1 WtCom= 1.00D+00 WtEn= 0.00D+00
 Coeff-Com: -0.111D-03 0.305D-02 0.291D-03-0.101D-01 0.836D-02 0.233D-01
 Coeff-Com: -0.671D-01 0.139D+00-0.384D+00 0.129D+01
 Coeff:     -0.111D-03 0.305D-02 0.291D-03-0.101D-01 0.836D-02 0.233D-01
 Coeff:     -0.671D-01 0.139D+00-0.384D+00 0.129D+01
 Gap=     0.602 Goal=   None    Shift=    0.000
 Gap=     0.580 Goal=   None    Shift=    0.000
 RMSDP=2.30D-05 MaxDP=2.43D-04 DE=-2.62D-07 OVMax= 1.44D-04

 Cycle  11  Pass 1  IDiag  1:
 E= -165.442606479269     Delta-E=       -0.000000018633 Rises=F Damp=F
 DIIS: error= 1.07D-05 at cycle  11 NSaved=  11.
 NSaved=11 IEnMin=11 EnMin= -165.442606479269     IErMin=11 ErrMin= 1.07D-05
 ErrMax= 1.07D-05 EMaxC= 1.00D-01 BMatC= 3.53D-09 BMatP= 1.97D-08
 IDIUse=1 WtCom= 1.00D+00 WtEn= 0.00D+00
 Coeff-Com:  0.629D-04-0.192D-02 0.206D-04 0.662D-02-0.817D-02-0.134D-01
 Coeff-Com:  0.365D-01-0.709D-01 0.153D+00-0.792D+00 0.169D+01
 Coeff:      0.629D-04-0.192D-02 0.206D-04 0.662D-02-0.817D-02-0.134D-01
 Coeff:      0.365D-01-0.709D-01 0.153D+00-0.792D+00 0.169D+01
 Gap=     0.602 Goal=   None    Shift=    0.000
 Gap=     0.580 Goal=   None    Shift=    0.000
 RMSDP=1.88D-05 MaxDP=2.11D-04 DE=-1.86D-08 OVMax= 1.99D-04

 Cycle  12  Pass 1  IDiag  1:
 E= -165.442606486067     Delta-E=       -0.000000006798 Rises=F Damp=F
 DIIS: error= 7.23D-06 at cycle  12 NSaved=  12.
 NSaved=12 IEnMin=12 EnMin= -165.442606486067     IErMin=12 ErrMin= 7.23D-06
 ErrMax= 7.23D-06 EMaxC= 1.00D-01 BMatC= 1.18D-09 BMatP= 3.53D-09
 IDIUse=1 WtCom= 1.00D+00 WtEn= 0.00D+00
 Coeff-Com:  0.121D-03-0.176D-02 0.207D-02 0.605D-02 0.743D-03-0.168D-01
 Coeff-Com:  0.321D-01-0.374D-01 0.630D-01 0.738D-01-0.857D+00 0.173D+01
 Coeff:      0.121D-03-0.176D-02 0.207D-02 0.605D-02 0.743D-03-0.168D-01
 Coeff:      0.321D-01-0.374D-01 0.630D-01 0.738D-01-0.857D+00 0.173D+01
 Gap=     0.602 Goal=   None    Shift=    0.000
 Gap=     0.580 Goal=   None    Shift=    0.000
 RMSDP=1.07D-05 MaxDP=1.09D-04 DE=-6.80D-09 OVMax= 1.03D-04

 Cycle  13  Pass 1  IDiag  1:
 E= -165.442606488239     Delta-E=       -0.000000002172 Rises=F Damp=F
 DIIS: error= 2.15D-06 at cycle  13 NSaved=  13.
 NSaved=13 IEnMin=13 EnMin= -165.442606488239     IErMin=13 ErrMin= 2.15D-06
 ErrMax= 2.15D-06 EMaxC= 1.00D-01 BMatC= 1.72D-10 BMatP= 1.18D-09
 IDIUse=1 WtCom= 1.00D+00 WtEn= 0.00D+00
 Coeff-Com: -0.264D-04 0.332D-03-0.331D-03-0.134D-02-0.940D-03 0.270D-02
 Coeff-Com: -0.765D-02 0.674D-02-0.186D-01 0.140D-01 0.263D+00-0.901D+00
 Coeff-Com:  0.164D+01
 Coeff:     -0.264D-04 0.332D-03-0.331D-03-0.134D-02-0.940D-03 0.270D-02
 Coeff:     -0.765D-02 0.674D-02-0.186D-01 0.140D-01 0.263D+00-0.901D+00
 Coeff:      0.164D+01
 Gap=     0.602 Goal=   None    Shift=    0.000
 Gap=     0.580 Goal=   None    Shift=    0.000
 RMSDP=5.68D-06 MaxDP=6.49D-05 DE=-2.17D-09 OVMax= 6.37D-05

 Cycle  14  Pass 1  IDiag  1:
 E= -165.442606488641     Delta-E=       -0.000000000402 Rises=F Damp=F
 DIIS: error= 1.23D-06 at cycle  14 NSaved=  14.
 NSaved=14 IEnMin=14 EnMin= -165.442606488641     IErMin=14 ErrMin= 1.23D-06
 ErrMax= 1.23D-06 EMaxC= 1.00D-01 BMatC= 4.78D-11 BMatP= 1.72D-10
 IDIUse=1 WtCom= 1.00D+00 WtEn= 0.00D+00
 Coeff-Com: -0.689D-05 0.564D-04-0.188D-03-0.170D-03-0.295D-03 0.143D-02
 Coeff-Com: -0.911D-04-0.599D-03 0.660D-02-0.665D-01 0.145D+00-0.633D-01
 Coeff-Com: -0.537D+00 0.151D+01
 Coeff:     -0.689D-05 0.564D-04-0.188D-03-0.170D-03-0.295D-03 0.143D-02
 Coeff:     -0.911D-04-0.599D-03 0.660D-02-0.665D-01 0.145D+00-0.633D-01
 Coeff:     -0.537D+00 0.151D+01
 Gap=     0.602 Goal=   None    Shift=    0.000
 Gap=     0.580 Goal=   None    Shift=    0.000
 RMSDP=1.98D-06 MaxDP=2.14D-05 DE=-4.02D-10 OVMax= 2.02D-05

 Cycle  15  Pass 1  IDiag  1:
 E= -165.442606488777     Delta-E=       -0.000000000136 Rises=F Damp=F
 DIIS: error= 1.28D-07 at cycle  15 NSaved=  15.
 NSaved=15 IEnMin=15 EnMin= -165.442606488777     IErMin=15 ErrMin= 1.28D-07
 ErrMax= 1.28D-07 EMaxC= 1.00D-01 BMatC= 7.35D-13 BMatP= 4.78D-11
 IDIUse=1 WtCom= 1.00D+00 WtEn= 0.00D+00
 Coeff-Com:  0.851D-06 0.249D-05 0.905D-05 0.237D-04 0.151D-03-0.446D-03
 Coeff-Com: -0.148D-03 0.304D-03-0.215D-02 0.186D-01-0.395D-01 0.300D-01
 Coeff-Com:  0.147D+00-0.682D+00 0.153D+01
 Coeff:      0.851D-06 0.249D-05 0.905D-05 0.237D-04 0.151D-03-0.446D-03
 Coeff:     -0.148D-03 0.304D-03-0.215D-02 0.186D-01-0.395D-01 0.300D-01
 Coeff:      0.147D+00-0.682D+00 0.153D+01
 Gap=     0.602 Goal=   None    Shift=    0.000
 Gap=     0.580 Goal=   None    Shift=    0.000
 RMSDP=1.30D-07 MaxDP=9.64D-07 DE=-1.36D-10 OVMax= 8.73D-07

 Cycle  16  Pass 1  IDiag  1:
 E= -165.442606488778     Delta-E=       -0.000000000001 Rises=F Damp=F
 DIIS: error= 4.69D-08 at cycle  16 NSaved=  16.
 NSaved=16 IEnMin=16 EnMin= -165.442606488778     IErMin=16 ErrMin= 4.69D-08
 ErrMax= 4.69D-08 EMaxC= 1.00D-01 BMatC= 6.96D-14 BMatP= 7.35D-13
 IDIUse=1 WtCom= 1.00D+00 WtEn= 0.00D+00
 Coeff-Com: -0.786D-06 0.628D-05-0.336D-05-0.404D-04-0.770D-04 0.240D-03
 Coeff-Com: -0.146D-03 0.107D-03 0.266D-03-0.493D-02 0.150D-01-0.254D-01
 Coeff-Com: -0.116D-01 0.194D+00-0.637D+00 0.147D+01
 Coeff:     -0.786D-06 0.628D-05-0.336D-05-0.404D-04-0.770D-04 0.240D-03
 Coeff:     -0.146D-03 0.107D-03 0.266D-03-0.493D-02 0.150D-01-0.254D-01
 Coeff:     -0.116D-01 0.194D+00-0.637D+00 0.147D+01
 Gap=     0.602 Goal=   None    Shift=    0.000
 Gap=     0.580 Goal=   None    Shift=    0.000
 RMSDP=5.83D-08 MaxDP=6.40D-07 DE=-7.11D-13 OVMax= 5.62D-07

 Cycle  17  Pass 1  IDiag  1:
 E= -165.442606488778     Delta-E=        0.000000000000 Rises=F Damp=F
 DIIS: error= 8.28D-09 at cycle  17 NSaved=  17.
 NSaved=17 IEnMin=17 EnMin= -165.442606488778     IErMin=17 ErrMin= 8.28D-09
 ErrMax= 8.28D-09 EMaxC= 1.00D-01 BMatC= 4.21D-15 BMatP= 6.96D-14
 IDIUse=1 WtCom= 1.00D+00 WtEn= 0.00D+00
 Large coefficients: NSaved= 17 BigCof=    0.00 CofMax=   10.00 Det=-1.83D-15
 Inversion failed.  Reducing to 16 matrices.
 Large coefficients: NSaved= 16 BigCof=    0.00 CofMax=   10.00 Det=-2.11D-15
 Inversion failed.  Reducing to 15 matrices.
 Coeff-Com: -0.454D-05 0.673D-05 0.187D-04-0.484D-04 0.313D-04-0.381D-04
 Coeff-Com: -0.588D-05 0.203D-03-0.733D-03 0.354D-02-0.177D-02-0.275D-01
 Coeff-Com:  0.145D+00-0.701D+00 0.158D+01
 Coeff:     -0.454D-05 0.673D-05 0.187D-04-0.484D-04 0.313D-04-0.381D-04
 Coeff:     -0.588D-05 0.203D-03-0.733D-03 0.354D-02-0.177D-02-0.275D-01
 Coeff:      0.145D+00-0.701D+00 0.158D+01
 Gap=     0.602 Goal=   None    Shift=    0.000
 Gap=     0.580 Goal=   None    Shift=    0.000
 RMSDP=7.84D-09 MaxDP=4.86D-08 DE=-2.27D-13 OVMax= 7.20D-09

 SCF Done:  E(UHF) =  -165.442606489     A.U. after   17 cycles
             Convg  =    0.7842D-08             -V/T =  2.0066
 <Sx>= 0.0000 <Sy>= 0.0000 <Sz>= 1.0000 <S**2>= 2.1449 S= 1.0476
 <L.S>= 0.000000000000E+00
 KE= 1.643530090484D+02 PE=-5.059665508504D+02 EE= 1.181775760083D+02
 Annihilation of the first spin contaminant:
 S**2 before annihilation     2.1449,   after     2.0026
 Leave Link  502 at Thu Aug 16 22:56:51 2018, MaxMem=    8388608 cpu:       1.0
 (Enter C:\G09W\l601.exe)
 Copying SCF densities to generalized density rwf, IOpCl= 1 IROHF=0.

 **********************************************************************

            Population analysis using the SCF density.

 **********************************************************************

 Orbital symmetries:
 Alpha Orbitals:
       Occupied  (A') (A') (A') (A') (A') (A') (A') (A") (A') (A')
                 (A") (A')
       Virtual   (A") (A') (A') (A')
 Beta  Orbitals:
       Occupied  (A') (A') (A') (A') (A') (A') (A') (A') (A") (A')
       Virtual   (A") (A') (A") (A') (A') (A')
 The electronic state is 3-A".
 Alpha  occ. eigenvalues --  -20.38966 -15.40461 -11.10625  -1.45000  -1.20557
 Alpha  occ. eigenvalues --   -0.74504  -0.66789  -0.60749  -0.58505  -0.49565
 Alpha  occ. eigenvalues --   -0.46989  -0.27349
 Alpha virt. eigenvalues --    0.32846   0.59498   0.77904   1.02403
  Beta  occ. eigenvalues --  -20.36571 -15.37560 -11.09843  -1.36172  -1.07145
  Beta  occ. eigenvalues --   -0.69717  -0.56893  -0.46980  -0.46133  -0.38765
  Beta virt. eigenvalues --    0.19212   0.27574   0.44778   0.63911   0.82592
  Beta virt. eigenvalues --    1.09098
          Condensed to atoms (all electrons):
              1          2          3          4
     1  H    0.540509   0.314765  -0.044571   0.001518
     2  N    0.314765   6.619267   0.311670  -0.023569
     3  C   -0.044571   0.311670   5.122164   0.426064
     4  O    0.001518  -0.023569   0.426064   7.746305
 Mulliken atomic charges:
              1
     1  H    0.187779
     2  N   -0.222134
     3  C    0.184673
     4  O   -0.150318
 Sum of Mulliken atomic charges =   0.00000
 Mulliken charges with hydrogens summed into heavy atoms:
              1
     2  N   -0.034355
     3  C    0.184673
     4  O   -0.150318
 Sum of Mulliken charges with hydrogens summed into heavy atoms =   0.00000
          Atomic-Atomic Spin Densities.
              1          2          3          4
     1  H   -0.055619  -0.011050  -0.006088   0.000002
     2  N   -0.011050   1.248491  -0.057603   0.000105
     3  C   -0.006088  -0.057603   0.305894  -0.137191
     4  O    0.000002   0.000105  -0.137191   0.924884
 Mulliken atomic spin densities:
              1
     1  H   -0.072755
     2  N    1.179943
     3  C    0.105012
     4  O    0.787800
 Sum of Mulliken atomic spin densities =   2.00000
 Electronic spatial extent (au):  <R**2>=            120.2618
 Charge=              0.0000 electrons
 Dipole moment (field-independent basis, Debye):
    X=              1.5609    Y=              0.9129    Z=              0.0000  Tot=              1.8083
 Quadrupole moment (field-independent basis, Debye-Ang):
   XX=            -14.0963   YY=            -16.7417   ZZ=            -13.9153
   XY=              1.4260   XZ=              0.0000   YZ=              0.0000
 Traceless Quadrupole moment (field-independent basis, Debye-Ang):
   XX=              0.8215   YY=             -1.8240   ZZ=              1.0025
   XY=              1.4260   XZ=              0.0000   YZ=              0.0000
 Octapole moment (field-independent basis, Debye-Ang**2):
  XXX=              4.4178  YYY=              0.8100  ZZZ=              0.0000  XYY=             -2.8393
  XXY=              1.2950  XXZ=              0.0000  XZZ=             -1.4467  YZZ=             -0.0249
  YYZ=              0.0000  XYZ=              0.0000
 Hexadecapole moment (field-independent basis, Debye-Ang**3):
 XXXX=            -81.0199 YYYY=            -24.4897 ZZZZ=             -8.7143 XXXY=             12.5604
 XXXZ=              0.0000 YYYX=             11.6299 YYYZ=              0.0000 ZZZX=              0.0000
 ZZZY=              0.0000 XXYY=            -20.3129 XXZZ=            -15.7704 YYZZ=             -5.2198
 XXYZ=              0.0000 YYXZ=              0.0000 ZZXY=              3.2810
 N-N= 5.799335930492D+01 E-N=-7.466013012484D+02  KE= 2.440959592554D+02
 Symmetry A'   KE= 2.370543315582D+02
 Symmetry A"   KE= 7.041627697126D+00
                          Isotropic Fermi Contact Couplings
        Atom                 a.u.       MegaHertz       Gauss      10(-4) cm-1
     1  H(1)              -0.02249     -50.26888     -17.93719     -16.76789
     2  N(14)              0.14131      22.82842       8.14575       7.61474
     3  C(13)              0.25649     144.17090      51.44376      48.09023
     4  O(17)              0.12116     -36.72252     -13.10351     -12.24931
 --------------------------------------------------------
       Center         ----  Spin Dipole Couplings  ----
                      3XX-RR        3YY-RR        3ZZ-RR
 --------------------------------------------------------
     1   Atom        0.127751     -0.055919     -0.071833
     2   Atom       -0.841192     -0.480446      1.321638
     3   Atom        0.050641      0.745851     -0.796492
     4   Atom       -1.111706      0.138216      0.973490
 --------------------------------------------------------
                        XY            XZ            YZ
 --------------------------------------------------------
     1   Atom        0.113194      0.000000      0.000000
     2   Atom       -0.262786      0.000000      0.000000
     3   Atom        0.261435      0.000000      0.000000
     4   Atom        0.270826      0.000000      0.000000
 --------------------------------------------------------


 ---------------------------------------------------------------------------------
              Anisotropic Spin Dipole Couplings in Principal Axis System
 ---------------------------------------------------------------------------------

       Atom             a.u.   MegaHertz   Gauss  10(-4) cm-1        Axes

              Baa    -0.1098   -58.608   -20.913   -19.550 -0.4301  0.9028  0.0000
     1 H(1)   Bbb    -0.0718   -38.326   -13.676   -12.784  0.0000  0.0000  1.0000
              Bcc     0.1817    96.935    34.589    32.334  0.9028  0.4301  0.0000
 
              Baa    -0.9796   -37.779   -13.481   -12.602  0.8848  0.4659  0.0000
     2 N(14)  Bbb    -0.3421   -13.193    -4.708    -4.401 -0.4659  0.8848  0.0000
              Bcc     1.3216    50.973    18.188    17.003  0.0000  0.0000  1.0000
 
              Baa    -0.7965  -106.882   -38.138   -35.652  0.0000  0.0000  1.0000
     3 C(13)  Bbb    -0.0367    -4.925    -1.757    -1.643  0.9485 -0.3169  0.0000
              Bcc     0.8332   111.806    39.895    37.295  0.3169  0.9485  0.0000
 
              Baa    -1.1679    84.506    30.154    28.188  0.9792 -0.2030  0.0000
     4 O(17)  Bbb     0.1944   -14.065    -5.019    -4.692  0.2030  0.9792  0.0000
              Bcc     0.9735   -70.441   -25.135   -23.497  0.0000  0.0000  1.0000
 

 ---------------------------------------------------------------------------------

 No NMR shielding tensors so no spin-rotation constants.
 Leave Link  601 at Thu Aug 16 22:56:51 2018, MaxMem=    8388608 cpu:       0.0
 (Enter C:\G09W\l701.exe)
 Compute integral first derivatives.
 ... and contract with generalized density number  0.
 Leave Link  701 at Thu Aug 16 22:56:51 2018, MaxMem=    8388608 cpu:       0.0
 (Enter C:\G09W\l702.exe)
 L702 exits ... SP integral derivatives will be done elsewhere.
 Leave Link  702 at Thu Aug 16 22:56:51 2018, MaxMem=    8388608 cpu:       0.0
 (Enter C:\G09W\l703.exe)
 Compute integral first derivatives, UseDBF=F ICtDFT=           0.
 Integral derivatives from FoFDir, PRISM(SPDF).
 Calling FoFJK, ICntrl=      2127 FMM=F ISym2X=1 I1Cent= 0 IOpClX= 1 NMat=1 NMatS=1 NMatT=0.
 FoFCou: FMM=F IPFlag=           0 FMFlag=      100000 FMFlg1=         800
         NFxFlg=           0 DoJE=F BraDBF=F KetDBF=F FulRan=T
         Omega=  0.000000  0.000000  1.000000  0.000000  0.000000 ICntrl=    2127 IOpCl=  1
         NMat0=    1 NMatS0=    1 NMatT0=    0 NMatD0=    1 NMtDS0=    0 NMtDT0=    0
         I1Cent=           0 NGrid=           0.
 Petite list used in FoFCou.
 Leave Link  703 at Thu Aug 16 22:56:52 2018, MaxMem=    8388608 cpu:       1.0
 (Enter C:\G09W\l716.exe)
 Dipole        = 6.14108040D-01 3.59164999D-01-2.73157783D-32
 ***** Axes restored to original set *****
 -------------------------------------------------------------------
 Center     Atomic                   Forces (Hartrees/Bohr)
 Number     Number              X              Y              Z
 -------------------------------------------------------------------
      1        1          -0.050630957    0.004700634    0.000000000
      2        7           0.030236820   -0.088055791    0.000000000
      3        6          -0.138635747    0.036426009    0.000000000
      4        8           0.159029884    0.046929148    0.000000000
 -------------------------------------------------------------------
 Cartesian Forces:  Max     0.159029884 RMS     0.070292988
 Leave Link  716 at Thu Aug 16 22:56:52 2018, MaxMem=    8388608 cpu:       0.0
 (Enter C:\G09W\l103.exe)

 GradGradGradGradGradGradGradGradGradGradGradGradGradGradGradGradGradGrad
 Berny optimization.
 Internal  Forces:  Max     0.165659265 RMS     0.079161912
 Search for a local minimum.
 Step number   1 out of a maximum of   20
 All quantities printed in internal units (Hartrees-Bohrs-Radians)
 RMS Force = .79162D-01 SwitMx=.10000D-02 MixMth= 1
 Mixed Optimization -- RFO/linear search
 Second derivative matrix not updated -- first step.
 The second derivative matrix:
                          R1        R2        R3        A1        A2
           R1           0.46579
           R2           0.00000   0.53901
           R3           0.00000   0.00000   1.26634
           A1           0.00000   0.00000   0.00000   0.16000
           A2           0.00000   0.00000   0.00000   0.00000   0.25000
           D1           0.00000   0.00000   0.00000   0.00000   0.00000
                          D1
           D1           0.02283
 ITU=  0
     Eigenvalues ---    0.02283   0.16000   0.25000   0.46579   0.53901
     Eigenvalues ---    1.26634
 RFO step:  Lambda=-3.98717926D-02 EMin= 2.28256031D-02
 Linear search not attempted -- first point.
 Iteration  1 RMS(Cart)=  0.08708172 RMS(Int)=  0.00160768
 Iteration  2 RMS(Cart)=  0.00218429 RMS(Int)=  0.00000166
 Iteration  3 RMS(Cart)=  0.00000154 RMS(Int)=  0.00000000
 Iteration  4 RMS(Cart)=  0.00000000 RMS(Int)=  0.00000000
 ClnCor:  largest displacement from symmetrization is 6.19D-11 for atom     3.
 Variable       Old X    -DE/DX   Delta X   Delta X   Delta X     New X
                                 (Linear)    (Quad)   (Total)
    R1        1.90184   0.05063   0.00000   0.10013   0.10013   2.00197
    R2        2.56122   0.08528   0.00000   0.14732   0.14732   2.70854
    R3        2.19545   0.16566   0.00000   0.12682   0.12682   2.32227
    A1        1.92218  -0.00894   0.00000  -0.04473  -0.04473   1.87746
    A2        2.25173  -0.01550   0.00000  -0.05348  -0.05348   2.19826
    D1        3.14159   0.00000   0.00000   0.00000   0.00000   3.14159
         Item               Value     Threshold  Converged?
 Maximum Force            0.165659     0.000450     NO 
 RMS     Force            0.079162     0.000300     NO 
 Maximum Displacement     0.121038     0.001800     NO 
 RMS     Displacement     0.085831     0.001200     NO 
 Predicted change in Energy=-2.098600D-02
 GradGradGradGradGradGradGradGradGradGradGradGradGradGradGradGradGradGrad

 Leave Link  103 at Thu Aug 16 22:56:52 2018, MaxMem=    8388608 cpu:       0.0
 (Enter C:\G09W\l202.exe)
                          Input orientation:                          
 ---------------------------------------------------------------------
 Center     Atomic      Atomic             Coordinates (Angstroms)
 Number     Number       Type             X           Y           Z
 ---------------------------------------------------------------------
      1          1           0       -0.053554   -0.025978    0.000000
      2          7           0        1.005666   -0.045279    0.000000
      3          6           0        1.463168    1.313042    0.000000
      4          8           0        2.636235    1.679231    0.000000
 ---------------------------------------------------------------------
                    Distance matrix (angstroms):
                    1          2          3          4
     1  H    0.000000
     2  N    1.059396   0.000000
     3  C    2.023220   1.433298   0.000000
     4  O    3.184762   2.373329   1.228895   0.000000
 Stoichiometry    CHNO(3)
 Framework group  CS[SG(CHNO)]
 Deg. of freedom     5
 Full point group                 CS      NOp   2
 RotChk:  IX=0 Diff= 2.52D-02
 Largest Abelian subgroup         CS      NOp   2
 Largest concise Abelian subgroup C1      NOp   1
                         Standard orientation:                         
 ---------------------------------------------------------------------
 Center     Atomic      Atomic             Coordinates (Angstroms)
 Number     Number       Type             X           Y           Z
 ---------------------------------------------------------------------
      1          1           0        1.986506    0.034042    0.000000
      2          7           0        1.083719   -0.520301    0.000000
      3          6           0        0.000000    0.417726    0.000000
      4          8           0       -1.196568    0.137713    0.000000
 ---------------------------------------------------------------------
 Rotational constants (GHZ):    147.0235376     10.9897385     10.2254081
 Leave Link  202 at Thu Aug 16 22:56:52 2018, MaxMem=    8388608 cpu:       0.0
 (Enter C:\G09W\l301.exe)
 Standard basis: STO-3G (5D, 7F)
 Ernie: Thresh=  0.10000D-02 Tol=  0.10000D-05 Strict=F.
 There are    13 symmetry adapted basis functions of A'  symmetry.
 There are     3 symmetry adapted basis functions of A"  symmetry.
 Integral buffers will be    262144 words long.
 Raffenetti 2 integral format.
 Two-electron integral symmetry is turned on.
    16 basis functions,    48 primitive gaussians,    16 cartesian basis functions
    12 alpha electrons       10 beta electrons
       nuclear repulsion energy        55.0572678918 Hartrees.
 IExCor=    0 DFT=F Ex=HF Corr=None ExCW=0 ScaHFX=  1.000000
 ScaDFX=  1.000000  1.000000  1.000000  1.000000 ScalE2=  1.000000  1.000000
 IRadAn=      0 IRanWt=     -1 IRanGd=            0 ICorTp=0
 NAtoms=    4 NActive=    4 NUniq=    4 SFac= 1.00D+00 NAtFMM=   60 NAOKFM=F Big=F
 Leave Link  301 at Thu Aug 16 22:56:52 2018, MaxMem=    8388608 cpu:       0.0
 (Enter C:\G09W\l302.exe)
 NPDir=0 NMtPBC=     1 NCelOv=     1 NCel=       1 NClECP=     1 NCelD=      1
         NCelK=      1 NCelE2=     1 NClLst=     1 CellRange=     0.0.
 One-electron integrals computed using PRISM.
 NBasis=    16 RedAO= T  NBF=    13     3
 NBsUse=    16 1.00D-06 NBFU=    13     3
 Leave Link  302 at Thu Aug 16 22:56:52 2018, MaxMem=    8388608 cpu:       0.0
 (Enter C:\G09W\l303.exe)
 DipDrv:  MaxL=1.
 Leave Link  303 at Thu Aug 16 22:56:52 2018, MaxMem=    8388608 cpu:       0.0
 (Enter C:\G09W\l401.exe)
 Initial guess read from the read-write file.
 B after Tr=     0.000000    0.000000    0.000000
         Rot=    1.000000    0.000000    0.000000    0.000000 Ang=   0.00 deg.
 Guess basis will be translated and rotated to current coordinates.
 Initial guess orbital symmetries:
 Alpha Orbitals:
       Occupied  (A') (A') (A') (A') (A') (A') (A') (A") (A') (A')
                 (A") (A')
       Virtual   (A") (A') (A') (A')
 Beta  Orbitals:
       Occupied  (A') (A') (A') (A') (A') (A') (A') (A') (A") (A')
       Virtual   (A") (A') (A") (A') (A') (A')
 The electronic state of the initial guess is 3-A".
 Initial guess <Sx>= 0.0000 <Sy>= 0.0000 <Sz>= 1.0000 <S**2>= 2.1577 S= 1.0517
 Generating alternative initial guess.
 Harris functional with IExCor=  205 diagonalized for initial guess.
 ExpMin= 1.69D-01 ExpMax= 1.31D+02 ExpMxC= 1.31D+02 IAcc=1 IRadAn=         1 AccDes= 0.00D+00
 HarFok:  IExCor=  205 AccDes= 0.00D+00 IRadAn=         1 IDoV= 1
 ScaDFX=  1.000000  1.000000  1.000000  1.000000
 FoFCou: FMM=F IPFlag=           0 FMFlag=      100000 FMFlg1=           0
         NFxFlg=           0 DoJE=T BraDBF=F KetDBF=T FulRan=T
         Omega=  0.000000  0.000000  1.000000  0.000000  0.000000 ICntrl=     500 IOpCl=  0
         NMat0=    1 NMatS0=    1 NMatT0=    0 NMatD0=    1 NMtDS0=    0 NMtDT0=    0
         I1Cent=           4 NGrid=           0.
 Petite list used in FoFCou.
 Harris En= -165.376701660716    
 Leave Link  401 at Thu Aug 16 22:56:52 2018, MaxMem=    8388608 cpu:       0.0
 (Enter C:\G09W\l502.exe)
 UHF open shell SCF:
 Requested convergence on RMS density matrix=1.00D-08 within 999 cycles.
 Requested convergence on MAX density matrix=1.00D-06.
 Requested convergence on             energy=1.00D-06.
 No special actions if energy rises.
 Using DIIS extrapolation, IDIIS=  1040.
 Integral symmetry usage will be decided dynamically.
 Keep R1 and R2 ints in memory in canonical form, NReq=1824344.
 IEnd=     1005691 IEndB=     1005691 NGot=     8388608 MDV=     8364719
 LenX=     8364719 LenY=     8363837
 Symmetry not used in FoFDir.
 MinBra= 0 MaxBra= 1 Meth= 1.
 IRaf=       0 NMat=   1 IRICut=       1 DoRegI=T DoRafI=F ISym2E= 0 JSym2E=0.

 Cycle   1  Pass 1  IDiag  1:
 E= -165.457108926829    
 DIIS: error= 1.06D-02 at cycle   1 NSaved=   1.
 NSaved= 1 IEnMin= 1 EnMin= -165.457108926829     IErMin= 1 ErrMin= 1.06D-02
 ErrMax= 1.06D-02 EMaxC= 1.00D-01 BMatC= 1.17D-02 BMatP= 1.17D-02
 IDIUse=3 WtCom= 8.94D-01 WtEn= 1.06D-01
 Coeff-Com:  0.100D+01
 Coeff-En:   0.100D+01
 Coeff:      0.100D+01
 Recover alternate guess density for next cycle.
 RMSDP=2.42D-02 MaxDP=2.46D-01              OVMax= 0.00D+00

 Cycle   2  Pass 1  IDiag  1:
 E= -165.411676260829     Delta-E=        0.045432666000 Rises=F Damp=F
 Switch densities from cycles 1 and 2 for lowest energy.
 DIIS: error= 2.77D-02 at cycle   2 NSaved=   2.
 NSaved= 2 IEnMin= 1 EnMin= -165.457108926829     IErMin= 1 ErrMin= 1.06D-02
 ErrMax= 2.77D-02 EMaxC= 1.00D+00 BMatC= 9.16D-02 BMatP= 1.17D-02
 IDIUse=1 WtCom= 1.00D+00 WtEn= 0.00D+00
 Coeff-Com:  0.107D+01-0.668D-01
 Coeff:      0.107D+01-0.668D-01
 Gap=     0.597 Goal=   None    Shift=    0.000
 Gap=     0.591 Goal=   None    Shift=    0.000
 RMSDP=1.42D-01 MaxDP=1.05D+00 DE= 4.54D-02 OVMax= 5.01D-03

 Cycle   3  Pass 1  IDiag  1:
 E= -165.461986264402     Delta-E=       -0.050310003573 Rises=F Damp=F
 DIIS: error= 4.53D-03 at cycle   3 NSaved=   3.
 NSaved= 3 IEnMin= 3 EnMin= -165.461986264402     IErMin= 3 ErrMin= 4.53D-03
 ErrMax= 4.53D-03 EMaxC= 1.00D+00 BMatC= 1.15D-03 BMatP= 1.17D-02
 IDIUse=1 WtCom= 1.00D+00 WtEn= 0.00D+00
 Coeff-Com: -0.297D+00 0.210D-01 0.128D+01
 Coeff:     -0.297D+00 0.210D-01 0.128D+01
 Gap=     0.600 Goal=   None    Shift=    0.000
 Gap=     0.590 Goal=   None    Shift=    0.000
 RMSDP=2.73D-03 MaxDP=2.04D-02 DE=-5.03D-02 OVMax= 7.17D-03

 Cycle   4  Pass 1  IDiag  1:
 E= -165.462799136894     Delta-E=       -0.000812872492 Rises=F Damp=F
 DIIS: error= 2.25D-03 at cycle   4 NSaved=   4.
 NSaved= 4 IEnMin= 4 EnMin= -165.462799136894     IErMin= 4 ErrMin= 2.25D-03
 ErrMax= 2.25D-03 EMaxC= 1.00D+00 BMatC= 1.62D-04 BMatP= 1.15D-03
 IDIUse=1 WtCom= 1.00D+00 WtEn= 0.00D+00
 Coeff-Com: -0.133D-02-0.448D-02-0.184D+00 0.119D+01
 Coeff:     -0.133D-02-0.448D-02-0.184D+00 0.119D+01
 Gap=     0.601 Goal=   None    Shift=    0.000
 Gap=     0.592 Goal=   None    Shift=    0.000
 RMSDP=1.08D-03 MaxDP=7.91D-03 DE=-8.13D-04 OVMax= 5.66D-03

 Cycle   5  Pass 1  IDiag  1:
 E= -165.462990899866     Delta-E=       -0.000191762972 Rises=F Damp=F
 DIIS: error= 1.49D-03 at cycle   5 NSaved=   5.
 NSaved= 5 IEnMin= 5 EnMin= -165.462990899866     IErMin= 5 ErrMin= 1.49D-03
 ErrMax= 1.49D-03 EMaxC= 1.00D+00 BMatC= 6.64D-05 BMatP= 1.62D-04
 IDIUse=1 WtCom= 1.00D+00 WtEn= 0.00D+00
 Coeff-Com:  0.514D-01-0.853D-02-0.117D+00-0.507D+00 0.158D+01
 Coeff:      0.514D-01-0.853D-02-0.117D+00-0.507D+00 0.158D+01
 Gap=     0.603 Goal=   None    Shift=    0.000
 Gap=     0.594 Goal=   None    Shift=    0.000
 RMSDP=9.83D-04 MaxDP=9.40D-03 DE=-1.92D-04 OVMax= 8.48D-03

 Cycle   6  Pass 1  IDiag  1:
 E= -165.463117854891     Delta-E=       -0.000126955025 Rises=F Damp=F
 DIIS: error= 8.94D-04 at cycle   6 NSaved=   6.
 NSaved= 6 IEnMin= 6 EnMin= -165.463117854891     IErMin= 6 ErrMin= 8.94D-04
 ErrMax= 8.94D-04 EMaxC= 1.00D+00 BMatC= 2.40D-05 BMatP= 6.64D-05
 IDIUse=1 WtCom= 1.00D+00 WtEn= 0.00D+00
 Coeff-Com: -0.340D-01 0.570D-02 0.150D+00-0.204D-01-0.128D+01 0.218D+01
 Coeff:     -0.340D-01 0.570D-02 0.150D+00-0.204D-01-0.128D+01 0.218D+01
 Gap=     0.605 Goal=   None    Shift=    0.000
 Gap=     0.596 Goal=   None    Shift=    0.000
 RMSDP=1.02D-03 MaxDP=1.04D-02 DE=-1.27D-04 OVMax= 1.04D-02

 Cycle   7  Pass 1  IDiag  1:
 E= -165.463188092146     Delta-E=       -0.000070237255 Rises=F Damp=F
 DIIS: error= 4.05D-04 at cycle   7 NSaved=   7.
 NSaved= 7 IEnMin= 7 EnMin= -165.463188092146     IErMin= 7 ErrMin= 4.05D-04
 ErrMax= 4.05D-04 EMaxC= 1.00D+00 BMatC= 4.50D-06 BMatP= 2.40D-05
 IDIUse=1 WtCom= 1.00D+00 WtEn= 0.00D+00
 Coeff-Com:  0.119D-01-0.214D-02-0.788D-01 0.102D+00 0.733D+00-0.185D+01
 Coeff-Com:  0.209D+01
 Coeff:      0.119D-01-0.214D-02-0.788D-01 0.102D+00 0.733D+00-0.185D+01
 Coeff:      0.209D+01
 Gap=     0.606 Goal=   None    Shift=    0.000
 Gap=     0.597 Goal=   None    Shift=    0.000
 RMSDP=4.81D-04 MaxDP=5.04D-03 DE=-7.02D-05 OVMax= 5.49D-03

 Cycle   8  Pass 1  IDiag  1:
 E= -165.463200626863     Delta-E=       -0.000012534718 Rises=F Damp=F
 DIIS: error= 1.44D-04 at cycle   8 NSaved=   8.
 NSaved= 8 IEnMin= 8 EnMin= -165.463200626863     IErMin= 8 ErrMin= 1.44D-04
 ErrMax= 1.44D-04 EMaxC= 1.00D+00 BMatC= 6.76D-07 BMatP= 4.50D-06
 IDIUse=1 WtCom= 1.00D+00 WtEn= 0.00D+00
 Coeff-Com:  0.460D-02-0.956D-03-0.177D-01-0.116D-01 0.167D+00-0.238D+00
 Coeff-Com: -0.137D-02 0.110D+01
 Coeff:      0.460D-02-0.956D-03-0.177D-01-0.116D-01 0.167D+00-0.238D+00
 Coeff:     -0.137D-02 0.110D+01
 Gap=     0.606 Goal=   None    Shift=    0.000
 Gap=     0.597 Goal=   None    Shift=    0.000
 RMSDP=8.53D-05 MaxDP=9.27D-04 DE=-1.25D-05 OVMax= 9.52D-04

 Cycle   9  Pass 1  IDiag  1:
 E= -165.463201621757     Delta-E=       -0.000000994894 Rises=F Damp=F
 DIIS: error= 7.70D-05 at cycle   9 NSaved=   9.
 NSaved= 9 IEnMin= 9 EnMin= -165.463201621757     IErMin= 9 ErrMin= 7.70D-05
 ErrMax= 7.70D-05 EMaxC= 1.00D+00 BMatC= 2.42D-07 BMatP= 6.76D-07
 IDIUse=1 WtCom= 1.00D+00 WtEn= 0.00D+00
 Coeff-Com: -0.525D-02 0.925D-03 0.331D-01-0.370D-01-0.289D+00 0.712D+00
 Coeff-Com: -0.829D+00-0.211D+00 0.162D+01
 Coeff:     -0.525D-02 0.925D-03 0.331D-01-0.370D-01-0.289D+00 0.712D+00
 Coeff:     -0.829D+00-0.211D+00 0.162D+01
 Gap=     0.606 Goal=   None    Shift=    0.000
 Gap=     0.598 Goal=   None    Shift=    0.000
 RMSDP=9.76D-05 MaxDP=8.40D-04 DE=-9.95D-07 OVMax= 8.72D-04

 Cycle  10  Pass 1  IDiag  1:
 E= -165.463202170398     Delta-E=       -0.000000548640 Rises=F Damp=F
 DIIS: error= 2.79D-05 at cycle  10 NSaved=  10.
 NSaved=10 IEnMin=10 EnMin= -165.463202170398     IErMin=10 ErrMin= 2.79D-05
 ErrMax= 2.79D-05 EMaxC= 1.00D+00 BMatC= 3.80D-08 BMatP= 2.42D-07
 IDIUse=1 WtCom= 1.00D+00 WtEn= 0.00D+00
 Coeff-Com:  0.371D-02-0.669D-03-0.248D-01 0.261D-01 0.241D+00-0.603D+00
 Coeff-Com:  0.771D+00-0.166D+00-0.121D+01 0.197D+01
 Coeff:      0.371D-02-0.669D-03-0.248D-01 0.261D-01 0.241D+00-0.603D+00
 Coeff:      0.771D+00-0.166D+00-0.121D+01 0.197D+01
 Gap=     0.606 Goal=   None    Shift=    0.000
 Gap=     0.598 Goal=   None    Shift=    0.000
 RMSDP=3.52D-05 MaxDP=3.57D-04 DE=-5.49D-07 OVMax= 1.56D-04

 Cycle  11  Pass 1  IDiag  1:
 E= -165.463202242032     Delta-E=       -0.000000071635 Rises=F Damp=F
 DIIS: error= 9.96D-06 at cycle  11 NSaved=  11.
 NSaved=11 IEnMin=11 EnMin= -165.463202242032     IErMin=11 ErrMin= 9.96D-06
 ErrMax= 9.96D-06 EMaxC= 1.00D+00 BMatC= 3.64D-09 BMatP= 3.80D-08
 IDIUse=1 WtCom= 1.00D+00 WtEn= 0.00D+00
 Coeff-Com: -0.211D-02 0.405D-03 0.140D-01-0.111D-01-0.156D+00 0.378D+00
 Coeff-Com: -0.492D+00 0.108D+00 0.803D+00-0.151D+01 0.186D+01
 Coeff:     -0.211D-02 0.405D-03 0.140D-01-0.111D-01-0.156D+00 0.378D+00
 Coeff:     -0.492D+00 0.108D+00 0.803D+00-0.151D+01 0.186D+01
 Gap=     0.606 Goal=   None    Shift=    0.000
 Gap=     0.598 Goal=   None    Shift=    0.000
 RMSDP=1.16D-05 MaxDP=1.23D-04 DE=-7.16D-08 OVMax= 8.06D-05

 Cycle  12  Pass 1  IDiag  1:
 E= -165.463202249185     Delta-E=       -0.000000007153 Rises=F Damp=F
 DIIS: error= 2.92D-06 at cycle  12 NSaved=  12.
 NSaved=12 IEnMin=12 EnMin= -165.463202249185     IErMin=12 ErrMin= 2.92D-06
 ErrMax= 2.92D-06 EMaxC= 1.00D+00 BMatC= 3.49D-10 BMatP= 3.64D-09
 IDIUse=1 WtCom= 1.00D+00 WtEn= 0.00D+00
 Coeff-Com:  0.428D-03-0.864D-04-0.275D-02 0.308D-03 0.390D-01-0.885D-01
 Coeff-Com:  0.118D+00-0.254D-01-0.197D+00 0.392D+00-0.742D+00 0.151D+01
 Coeff:      0.428D-03-0.864D-04-0.275D-02 0.308D-03 0.390D-01-0.885D-01
 Coeff:      0.118D+00-0.254D-01-0.197D+00 0.392D+00-0.742D+00 0.151D+01
 Gap=     0.606 Goal=   None    Shift=    0.000
 Gap=     0.598 Goal=   None    Shift=    0.000
 RMSDP=2.76D-06 MaxDP=2.36D-05 DE=-7.15D-09 OVMax= 6.50D-06

 Cycle  13  Pass 1  IDiag  1:
 E= -165.463202249735     Delta-E=       -0.000000000550 Rises=F Damp=F
 DIIS: error= 8.52D-07 at cycle  13 NSaved=  13.
 NSaved=13 IEnMin=13 EnMin= -165.463202249735     IErMin=13 ErrMin= 8.52D-07
 ErrMax= 8.52D-07 EMaxC= 1.00D+00 BMatC= 5.06D-11 BMatP= 3.49D-10
 IDIUse=1 WtCom= 1.00D+00 WtEn= 0.00D+00
 Coeff-Com: -0.190D-03 0.411D-04 0.118D-02 0.702D-03-0.201D-01 0.431D-01
 Coeff-Com: -0.569D-01 0.620D-02 0.102D+00-0.183D+00 0.362D+00-0.103D+01
 Coeff-Com:  0.178D+01
 Coeff:     -0.190D-03 0.411D-04 0.118D-02 0.702D-03-0.201D-01 0.431D-01
 Coeff:     -0.569D-01 0.620D-02 0.102D+00-0.183D+00 0.362D+00-0.103D+01
 Coeff:      0.178D+01
 Gap=     0.606 Goal=   None    Shift=    0.000
 Gap=     0.598 Goal=   None    Shift=    0.000
 RMSDP=1.19D-06 MaxDP=1.09D-05 DE=-5.50D-10 OVMax= 4.68D-06

 Cycle  14  Pass 1  IDiag  1:
 E= -165.463202249813     Delta-E=       -0.000000000078 Rises=F Damp=F
 DIIS: error= 3.27D-07 at cycle  14 NSaved=  14.
 NSaved=14 IEnMin=14 EnMin= -165.463202249813     IErMin=14 ErrMin= 3.27D-07
 ErrMax= 3.27D-07 EMaxC= 1.00D+00 BMatC= 7.52D-12 BMatP= 5.06D-11
 IDIUse=1 WtCom= 1.00D+00 WtEn= 0.00D+00
 Coeff-Com:  0.302D-05-0.497D-05 0.430D-04-0.122D-02 0.457D-02-0.702D-02
 Coeff-Com:  0.976D-02 0.242D-02-0.214D-01 0.324D-01-0.113D+00 0.569D+00
 Coeff-Com: -0.147D+01 0.199D+01
 Coeff:      0.302D-05-0.497D-05 0.430D-04-0.122D-02 0.457D-02-0.702D-02
 Coeff:      0.976D-02 0.242D-02-0.214D-01 0.324D-01-0.113D+00 0.569D+00
 Coeff:     -0.147D+01 0.199D+01
 Gap=     0.606 Goal=   None    Shift=    0.000
 Gap=     0.598 Goal=   None    Shift=    0.000
 RMSDP=4.66D-07 MaxDP=2.66D-06 DE=-7.84D-11 OVMax= 2.48D-06

 Cycle  15  Pass 1  IDiag  1:
 E= -165.463202249825     Delta-E=       -0.000000000012 Rises=F Damp=F
 DIIS: error= 7.32D-08 at cycle  15 NSaved=  15.
 NSaved=15 IEnMin=15 EnMin= -165.463202249825     IErMin=15 ErrMin= 7.32D-08
 ErrMax= 7.32D-08 EMaxC= 1.00D+00 BMatC= 5.35D-13 BMatP= 7.52D-12
 IDIUse=1 WtCom= 1.00D+00 WtEn= 0.00D+00
 Coeff-Com:  0.394D-05 0.121D-05-0.570D-04 0.518D-03-0.134D-02 0.161D-02
 Coeff-Com: -0.225D-02-0.133D-02 0.550D-02-0.625D-02 0.293D-01-0.185D+00
 Coeff-Com:  0.540D+00-0.980D+00 0.160D+01
 Coeff:      0.394D-05 0.121D-05-0.570D-04 0.518D-03-0.134D-02 0.161D-02
 Coeff:     -0.225D-02-0.133D-02 0.550D-02-0.625D-02 0.293D-01-0.185D+00
 Coeff:      0.540D+00-0.980D+00 0.160D+01
 Gap=     0.606 Goal=   None    Shift=    0.000
 Gap=     0.598 Goal=   None    Shift=    0.000
 RMSDP=1.11D-07 MaxDP=8.32D-07 DE=-1.22D-11 OVMax= 3.27D-07

 Cycle  16  Pass 1  IDiag  1:
 E= -165.463202249826     Delta-E=       -0.000000000001 Rises=F Damp=F
 DIIS: error= 1.91D-08 at cycle  16 NSaved=  16.
 NSaved=16 IEnMin=16 EnMin= -165.463202249826     IErMin=16 ErrMin= 1.91D-08
 ErrMax= 1.91D-08 EMaxC= 1.00D+00 BMatC= 2.10D-14 BMatP= 5.35D-13
 IDIUse=1 WtCom= 1.00D+00 WtEn= 0.00D+00
 Coeff-Com: -0.173D-06-0.421D-06 0.934D-05-0.130D-03 0.403D-03-0.553D-03
 Coeff-Com:  0.756D-03 0.208D-03-0.144D-02 0.175D-02-0.662D-02 0.429D-01
 Coeff-Com: -0.128D+00 0.261D+00-0.585D+00 0.142D+01
 Coeff:     -0.173D-06-0.421D-06 0.934D-05-0.130D-03 0.403D-03-0.553D-03
 Coeff:      0.756D-03 0.208D-03-0.144D-02 0.175D-02-0.662D-02 0.429D-01
 Coeff:     -0.128D+00 0.261D+00-0.585D+00 0.142D+01
 Gap=     0.606 Goal=   None    Shift=    0.000
 Gap=     0.598 Goal=   None    Shift=    0.000
 RMSDP=1.53D-08 MaxDP=8.74D-08 DE=-6.82D-13 OVMax= 5.32D-08

 Cycle  17  Pass 1  IDiag  1:
 E= -165.463202249826     Delta-E=        0.000000000000 Rises=F Damp=F
 DIIS: error= 4.71D-09 at cycle  17 NSaved=  17.
 NSaved=17 IEnMin=16 EnMin= -165.463202249826     IErMin=17 ErrMin= 4.71D-09
 ErrMax= 4.71D-09 EMaxC= 1.00D+00 BMatC= 1.63D-15 BMatP= 2.10D-14
 IDIUse=1 WtCom= 1.00D+00 WtEn= 0.00D+00
 Large coefficients: NSaved= 17 BigCof=    0.00 CofMax=   10.00 Det=-1.17D-15
 Inversion failed.  Reducing to 16 matrices.
 Large coefficients: NSaved= 16 BigCof=    0.00 CofMax=   10.00 Det=-1.24D-15
 Inversion failed.  Reducing to 15 matrices.
 Coeff-Com: -0.747D-06 0.860D-05-0.215D-04 0.244D-04-0.315D-04 0.131D-04
 Coeff-Com: -0.381D-04 0.141D-03-0.569D-03 0.373D-03 0.291D-02-0.209D-01
 Coeff-Com:  0.112D+00-0.566D+00 0.147D+01
 Coeff:     -0.747D-06 0.860D-05-0.215D-04 0.244D-04-0.315D-04 0.131D-04
 Coeff:     -0.381D-04 0.141D-03-0.569D-03 0.373D-03 0.291D-02-0.209D-01
 Coeff:      0.112D+00-0.566D+00 0.147D+01
 Gap=     0.606 Goal=   None    Shift=    0.000
 Gap=     0.598 Goal=   None    Shift=    0.000
 RMSDP=4.60D-09 MaxDP=2.79D-08 DE= 2.84D-14 OVMax= 3.47D-08

 SCF Done:  E(UHF) =  -165.463202250     A.U. after   17 cycles
             Convg  =    0.4605D-08             -V/T =  2.0079
 <Sx>= 0.0000 <Sy>= 0.0000 <Sz>= 1.0000 <S**2>= 2.2563 S= 1.0831
 <L.S>= 0.000000000000E+00
 KE= 1.641658507481D+02 PE=-5.003585744985D+02 EE= 1.156722536088D+02
 Annihilation of the first spin contaminant:
 S**2 before annihilation     2.2563,   after     2.0082
 Leave Link  502 at Thu Aug 16 22:56:53 2018, MaxMem=    8388608 cpu:       1.0
 (Enter C:\G09W\l701.exe)
 Compute integral first derivatives.
 ... and contract with generalized density number  0.
 Leave Link  701 at Thu Aug 16 22:56:53 2018, MaxMem=    8388608 cpu:       0.0
 (Enter C:\G09W\l702.exe)
 L702 exits ... SP integral derivatives will be done elsewhere.
 Leave Link  702 at Thu Aug 16 22:56:53 2018, MaxMem=    8388608 cpu:       0.0
 (Enter C:\G09W\l703.exe)
 Compute integral first derivatives, UseDBF=F ICtDFT=           0.
 Integral derivatives from FoFDir, PRISM(SPDF).
 Calling FoFJK, ICntrl=      2127 FMM=F ISym2X=1 I1Cent= 0 IOpClX= 1 NMat=1 NMatS=1 NMatT=0.
 FoFCou: FMM=F IPFlag=           0 FMFlag=      100000 FMFlg1=         800
         NFxFlg=           0 DoJE=F BraDBF=F KetDBF=F FulRan=T
         Omega=  0.000000  0.000000  1.000000  0.000000  0.000000 ICntrl=    2127 IOpCl=  1
         NMat0=    1 NMatS0=    1 NMatT0=    0 NMatD0=    1 NMtDS0=    0 NMtDT0=    0
         I1Cent=           0 NGrid=           0.
 Petite list used in FoFCou.
 Leave Link  703 at Thu Aug 16 22:56:53 2018, MaxMem=    8388608 cpu:       0.0
 (Enter C:\G09W\l716.exe)
 Dipole        = 5.77345266D-01 3.68478843D-01 5.86409750D-32
 ***** Axes restored to original set *****
 -------------------------------------------------------------------
 Center     Atomic                   Forces (Hartrees/Bohr)
 Number     Number              X              Y              Z
 -------------------------------------------------------------------
      1        1           0.004152012    0.004926576    0.000000000
      2        7           0.002193429   -0.012372157    0.000000000
      3        6          -0.028178084    0.006364789    0.000000000
      4        8           0.021832643    0.001080792    0.000000000
 -------------------------------------------------------------------
 Cartesian Forces:  Max     0.028178084 RMS     0.011224004
 Leave Link  716 at Thu Aug 16 22:56:53 2018, MaxMem=    8388608 cpu:       0.0
 (Enter C:\G09W\l103.exe)

 GradGradGradGradGradGradGradGradGradGradGradGradGradGradGradGradGradGrad
 Berny optimization.
 Using GEDIIS/GDIIS optimizer.
 Internal  Forces:  Max     0.021162869 RMS     0.011191708
 Search for a local minimum.
 Step number   2 out of a maximum of   20
 All quantities printed in internal units (Hartrees-Bohrs-Radians)
 RMS Force = .11192D-01 SwitMx=.10000D-02 MixMth= 1
 Mixed Optimization -- RFO/linear search
 Update second derivatives using D2CorX and points    1    2
 DE= -2.06D-02 DEPred=-2.10D-02 R= 9.81D-01
 SS=  1.41D+00  RLast= 2.30D-01 DXNew= 5.0454D-01 6.8852D-01
 Trust test= 9.81D-01 RLast= 2.30D-01 DXMaxT set to 5.05D-01
 The second derivative matrix:
                          R1        R2        R3        A1        A2
           R1           0.49193
           R2           0.02481   0.55234
           R3           0.02290  -0.01305   1.16790
           A1           0.01048   0.01745   0.03477   0.15868
           A2           0.01224   0.02184   0.04556  -0.00262   0.24549
           D1           0.00000   0.00000   0.00000   0.00000   0.00000
                          D1
           D1           0.02283
 ITU=  1  0
 Use linear search instead of GDIIS.
     Eigenvalues ---    0.02283   0.15611   0.24168   0.48211   0.56410
     Eigenvalues ---    1.17234
 RFO step:  Lambda=-1.79076174D-03 EMin= 2.28256031D-02
 Quartic linear search produced a step of  0.15688.
 Iteration  1 RMS(Cart)=  0.04244811 RMS(Int)=  0.00114537
 Iteration  2 RMS(Cart)=  0.00145984 RMS(Int)=  0.00000019
 Iteration  3 RMS(Cart)=  0.00000017 RMS(Int)=  0.00000000
 ClnCor:  largest displacement from symmetrization is 2.19D-11 for atom     3.
 Variable       Old X    -DE/DX   Delta X   Delta X   Delta X     New X
                                 (Linear)    (Quad)   (Total)
    R1        2.00197  -0.00406   0.01571  -0.01731  -0.00160   2.00037
    R2        2.70854   0.00503   0.02311  -0.00085   0.02227   2.73081
    R3        2.32227   0.02116   0.01990   0.00640   0.02629   2.34857
    A1        1.87746  -0.01001  -0.00702  -0.07225  -0.07927   1.79819
    A2        2.19826  -0.01271  -0.00839  -0.05664  -0.06503   2.13323
    D1        3.14159   0.00000   0.00000   0.00000   0.00000   3.14159
         Item               Value     Threshold  Converged?
 Maximum Force            0.021163     0.000450     NO 
 RMS     Force            0.011192     0.000300     NO 
 Maximum Displacement     0.057496     0.001800     NO 
 RMS     Displacement     0.043320     0.001200     NO 
 Predicted change in Energy=-9.696512D-04
 GradGradGradGradGradGradGradGradGradGradGradGradGradGradGradGradGradGrad

 Leave Link  103 at Thu Aug 16 22:56:53 2018, MaxMem=    8388608 cpu:       0.0
 (Enter C:\G09W\l202.exe)
                          Input orientation:                          
 ---------------------------------------------------------------------
 Center     Atomic      Atomic             Coordinates (Angstroms)
 Number     Number       Type             X           Y           Z
 ---------------------------------------------------------------------
      1          1           0       -0.033338    0.000400    0.000000
      2          7           0        1.023315   -0.062934    0.000000
      3          6           0        1.432743    1.322933    0.000000
      4          8           0        2.628796    1.660617    0.000000
 ---------------------------------------------------------------------
                    Distance matrix (angstroms):
                    1          2          3          4
     1  H    0.000000
     2  N    1.058550   0.000000
     3  C    1.974458   1.445080   0.000000
     4  O    3.137400   2.355461   1.242809   0.000000
 Stoichiometry    CHNO(3)
 Framework group  CS[SG(CHNO)]
 Deg. of freedom     5
 Full point group                 CS      NOp   2
 RotChk:  IX=0 Diff= 4.12D-02
 Largest Abelian subgroup         CS      NOp   2
 Largest concise Abelian subgroup C1      NOp   1
                         Standard orientation:                         
 ---------------------------------------------------------------------
 Center     Atomic      Atomic             Coordinates (Angstroms)
 Number     Number       Type             X           Y           Z
 ---------------------------------------------------------------------
      1          1           0        1.945207    0.108321    0.000000
      2          7           0        1.084591   -0.508015    0.000000
      3          6           0        0.000000    0.446930    0.000000
      4          8           0       -1.192168    0.095776    0.000000
 ---------------------------------------------------------------------
 Rotational constants (GHZ):    128.4351521     11.1890565     10.2923998
 Leave Link  202 at Thu Aug 16 22:56:53 2018, MaxMem=    8388608 cpu:       0.0
 (Enter C:\G09W\l301.exe)
 Standard basis: STO-3G (5D, 7F)
 Ernie: Thresh=  0.10000D-02 Tol=  0.10000D-05 Strict=F.
 There are    13 symmetry adapted basis functions of A'  symmetry.
 There are     3 symmetry adapted basis functions of A"  symmetry.
 Integral buffers will be    262144 words long.
 Raffenetti 2 integral format.
 Two-electron integral symmetry is turned on.
    16 basis functions,    48 primitive gaussians,    16 cartesian basis functions
    12 alpha electrons       10 beta electrons
       nuclear repulsion energy        54.8557580100 Hartrees.
 IExCor=    0 DFT=F Ex=HF Corr=None ExCW=0 ScaHFX=  1.000000
 ScaDFX=  1.000000  1.000000  1.000000  1.000000 ScalE2=  1.000000  1.000000
 IRadAn=      0 IRanWt=     -1 IRanGd=            0 ICorTp=0
 NAtoms=    4 NActive=    4 NUniq=    4 SFac= 1.00D+00 NAtFMM=   60 NAOKFM=F Big=F
 Leave Link  301 at Thu Aug 16 22:56:53 2018, MaxMem=    8388608 cpu:       0.0
 (Enter C:\G09W\l302.exe)
 NPDir=0 NMtPBC=     1 NCelOv=     1 NCel=       1 NClECP=     1 NCelD=      1
         NCelK=      1 NCelE2=     1 NClLst=     1 CellRange=     0.0.
 One-electron integrals computed using PRISM.
 NBasis=    16 RedAO= T  NBF=    13     3
 NBsUse=    16 1.00D-06 NBFU=    13     3
 Leave Link  302 at Thu Aug 16 22:56:54 2018, MaxMem=    8388608 cpu:       1.0
 (Enter C:\G09W\l303.exe)
 DipDrv:  MaxL=1.
 Leave Link  303 at Thu Aug 16 22:56:54 2018, MaxMem=    8388608 cpu:       0.0
 (Enter C:\G09W\l401.exe)
 Initial guess read from the read-write file.
 B after Tr=     0.000000    0.000000    0.000000
         Rot=    1.000000    0.000000    0.000000    0.000000 Ang=   0.00 deg.
 Guess basis will be translated and rotated to current coordinates.
 Initial guess orbital symmetries:
 Alpha Orbitals:
       Occupied  (A') (A') (A') (A') (A') (A') (A') (A") (A') (A')
                 (A") (A')
       Virtual   (A") (A') (A') (A')
 Beta  Orbitals:
       Occupied  (A') (A') (A') (A') (A') (A') (A') (A') (A") (A')
       Virtual   (A") (A') (A") (A') (A') (A')
 The electronic state of the initial guess is 3-A".
 Initial guess <Sx>= 0.0000 <Sy>= 0.0000 <Sz>= 1.0000 <S**2>= 2.2598 S= 1.0842
 Generating alternative initial guess.
 Harris functional with IExCor=  205 diagonalized for initial guess.
 ExpMin= 1.69D-01 ExpMax= 1.31D+02 ExpMxC= 1.31D+02 IAcc=1 IRadAn=         1 AccDes= 0.00D+00
 HarFok:  IExCor=  205 AccDes= 0.00D+00 IRadAn=         1 IDoV= 1
 ScaDFX=  1.000000  1.000000  1.000000  1.000000
 FoFCou: FMM=F IPFlag=           0 FMFlag=      100000 FMFlg1=           0
         NFxFlg=           0 DoJE=T BraDBF=F KetDBF=T FulRan=T
         Omega=  0.000000  0.000000  1.000000  0.000000  0.000000 ICntrl=     500 IOpCl=  0
         NMat0=    1 NMatS0=    1 NMatT0=    0 NMatD0=    1 NMtDS0=    0 NMtDT0=    0
         I1Cent=           4 NGrid=           0.
 Petite list used in FoFCou.
 Harris En= -165.377120115229    
 Leave Link  401 at Thu Aug 16 22:56:54 2018, MaxMem=    8388608 cpu:       0.0
 (Enter C:\G09W\l502.exe)
 UHF open shell SCF:
 Requested convergence on RMS density matrix=1.00D-08 within 999 cycles.
 Requested convergence on MAX density matrix=1.00D-06.
 Requested convergence on             energy=1.00D-06.
 No special actions if energy rises.
 Using DIIS extrapolation, IDIIS=  1040.
 Integral symmetry usage will be decided dynamically.
 Keep R1 and R2 ints in memory in canonical form, NReq=1824344.
 IEnd=     1005691 IEndB=     1005691 NGot=     8388608 MDV=     8364719
 LenX=     8364719 LenY=     8363837
 Symmetry not used in FoFDir.
 MinBra= 0 MaxBra= 1 Meth= 1.
 IRaf=       0 NMat=   1 IRICut=       1 DoRegI=T DoRafI=F ISym2E= 0 JSym2E=0.

 Cycle   1  Pass 1  IDiag  1:
 E= -165.461269489478    
 DIIS: error= 7.68D-03 at cycle   1 NSaved=   1.
 NSaved= 1 IEnMin= 1 EnMin= -165.461269489478     IErMin= 1 ErrMin= 7.68D-03
 ErrMax= 7.68D-03 EMaxC= 1.00D-01 BMatC= 4.20D-03 BMatP= 4.20D-03
 IDIUse=3 WtCom= 9.23D-01 WtEn= 7.68D-02
 Coeff-Com:  0.100D+01
 Coeff-En:   0.100D+01
 Coeff:      0.100D+01
 Gap=     0.614 Goal=   None    Shift=    0.000
 Gap=     0.604 Goal=   None    Shift=    0.000
 GapD=    0.604 DampG=2.000 DampE=1.000 DampFc=2.0000 IDamp=-1.
 RMSDP=3.67D-03 MaxDP=1.80D-02              OVMax= 3.21D-03

 Cycle   2  Pass 1  IDiag  1:
 E= -165.463363774618     Delta-E=       -0.002094285140 Rises=F Damp=F
 DIIS: error= 2.66D-03 at cycle   2 NSaved=   2.
 NSaved= 2 IEnMin= 2 EnMin= -165.463363774618     IErMin= 2 ErrMin= 2.66D-03
 ErrMax= 2.66D-03 EMaxC= 1.00D-01 BMatC= 4.85D-04 BMatP= 4.20D-03
 IDIUse=3 WtCom= 9.73D-01 WtEn= 2.66D-02
 Coeff-Com: -0.445D+00 0.144D+01
 Coeff-En:   0.000D+00 0.100D+01
 Coeff:     -0.433D+00 0.143D+01
 Gap=     0.614 Goal=   None    Shift=    0.000
 Gap=     0.603 Goal=   None    Shift=    0.000
 RMSDP=1.91D-03 MaxDP=8.71D-03 DE=-2.09D-03 OVMax= 4.35D-03

 Cycle   3  Pass 1  IDiag  1:
 E= -165.463690706287     Delta-E=       -0.000326931670 Rises=F Damp=F
 DIIS: error= 6.68D-04 at cycle   3 NSaved=   3.
 NSaved= 3 IEnMin= 3 EnMin= -165.463690706287     IErMin= 3 ErrMin= 6.68D-04
 ErrMax= 6.68D-04 EMaxC= 1.00D-01 BMatC= 2.26D-05 BMatP= 4.85D-04
 IDIUse=3 WtCom= 9.93D-01 WtEn= 6.68D-03
 Coeff-Com:  0.914D-01-0.362D+00 0.127D+01
 Coeff-En:   0.000D+00 0.000D+00 0.100D+01
 Coeff:      0.908D-01-0.360D+00 0.127D+01
 Gap=     0.614 Goal=   None    Shift=    0.000
 Gap=     0.603 Goal=   None    Shift=    0.000
 RMSDP=4.03D-04 MaxDP=2.54D-03 DE=-3.27D-04 OVMax= 2.50D-03

 Cycle   4  Pass 1  IDiag  1:
 E= -165.463717067305     Delta-E=       -0.000026361017 Rises=F Damp=F
 DIIS: error= 5.16D-04 at cycle   4 NSaved=   4.
 NSaved= 4 IEnMin= 4 EnMin= -165.463717067305     IErMin= 4 ErrMin= 5.16D-04
 ErrMax= 5.16D-04 EMaxC= 1.00D-01 BMatC= 8.86D-06 BMatP= 2.26D-05
 IDIUse=3 WtCom= 9.95D-01 WtEn= 5.16D-03
 Coeff-Com:  0.187D-02 0.452D-01-0.981D+00 0.193D+01
 Coeff-En:   0.000D+00 0.000D+00 0.000D+00 0.100D+01
 Coeff:      0.186D-02 0.450D-01-0.976D+00 0.193D+01
 Gap=     0.615 Goal=   None    Shift=    0.000
 Gap=     0.603 Goal=   None    Shift=    0.000
 RMSDP=3.91D-04 MaxDP=2.96D-03 DE=-2.64D-05 OVMax= 3.19D-03

 Cycle   5  Pass 1  IDiag  1:
 E= -165.463733194330     Delta-E=       -0.000016127025 Rises=F Damp=F
 DIIS: error= 2.54D-04 at cycle   5 NSaved=   5.
 NSaved= 5 IEnMin= 5 EnMin= -165.463733194330     IErMin= 5 ErrMin= 2.54D-04
 ErrMax= 2.54D-04 EMaxC= 1.00D-01 BMatC= 2.11D-06 BMatP= 8.86D-06
 IDIUse=3 WtCom= 9.97D-01 WtEn= 2.54D-03
 Coeff-Com: -0.309D-01 0.108D+00-0.115D+00-0.562D+00 0.160D+01
 Coeff-En:   0.000D+00 0.000D+00 0.000D+00 0.000D+00 0.100D+01
 Coeff:     -0.309D-01 0.107D+00-0.115D+00-0.561D+00 0.160D+01
 Gap=     0.615 Goal=   None    Shift=    0.000
 Gap=     0.603 Goal=   None    Shift=    0.000
 RMSDP=2.43D-04 MaxDP=2.13D-03 DE=-1.61D-05 OVMax= 2.07D-03

 Cycle   6  Pass 1  IDiag  1:
 E= -165.463737635494     Delta-E=       -0.000004441164 Rises=F Damp=F
 DIIS: error= 8.80D-05 at cycle   6 NSaved=   6.
 NSaved= 6 IEnMin= 6 EnMin= -165.463737635494     IErMin= 6 ErrMin= 8.80D-05
 ErrMax= 8.80D-05 EMaxC= 1.00D-01 BMatC= 3.38D-07 BMatP= 2.11D-06
 IDIUse=1 WtCom= 1.00D+00 WtEn= 0.00D+00
 Coeff-Com:  0.845D-02-0.395D-01 0.228D+00-0.240D+00-0.459D+00 0.150D+01
 Coeff:      0.845D-02-0.395D-01 0.228D+00-0.240D+00-0.459D+00 0.150D+01
 Gap=     0.616 Goal=   None    Shift=    0.000
 Gap=     0.604 Goal=   None    Shift=    0.000
 RMSDP=9.67D-05 MaxDP=8.89D-04 DE=-4.44D-06 OVMax= 8.71D-04

 Cycle   7  Pass 1  IDiag  1:
 E= -165.463738283666     Delta-E=       -0.000000648172 Rises=F Damp=F
 DIIS: error= 4.97D-05 at cycle   7 NSaved=   7.
 NSaved= 7 IEnMin= 7 EnMin= -165.463738283666     IErMin= 7 ErrMin= 4.97D-05
 ErrMax= 4.97D-05 EMaxC= 1.00D-01 BMatC= 7.41D-08 BMatP= 3.38D-07
 IDIUse=1 WtCom= 1.00D+00 WtEn= 0.00D+00
 Coeff-Com:  0.234D-02-0.605D-02-0.359D-01 0.141D+00-0.110D+00-0.286D+00
 Coeff-Com:  0.129D+01
 Coeff:      0.234D-02-0.605D-02-0.359D-01 0.141D+00-0.110D+00-0.286D+00
 Coeff:      0.129D+01
 Gap=     0.616 Goal=   None    Shift=    0.000
 Gap=     0.604 Goal=   None    Shift=    0.000
 RMSDP=2.60D-05 MaxDP=2.27D-04 DE=-6.48D-07 OVMax= 1.98D-04

 Cycle   8  Pass 1  IDiag  1:
 E= -165.463738391051     Delta-E=       -0.000000107385 Rises=F Damp=F
 DIIS: error= 2.47D-05 at cycle   8 NSaved=   8.
 NSaved= 8 IEnMin= 8 EnMin= -165.463738391051     IErMin= 8 ErrMin= 2.47D-05
 ErrMax= 2.47D-05 EMaxC= 1.00D-01 BMatC= 3.03D-08 BMatP= 7.41D-08
 IDIUse=1 WtCom= 1.00D+00 WtEn= 0.00D+00
 Coeff-Com: -0.357D-02 0.174D-01-0.107D+00 0.108D+00 0.188D+00-0.652D+00
 Coeff-Com: -0.162D-01 0.147D+01
 Coeff:     -0.357D-02 0.174D-01-0.107D+00 0.108D+00 0.188D+00-0.652D+00
 Coeff:     -0.162D-01 0.147D+01
 Gap=     0.616 Goal=   None    Shift=    0.000
 Gap=     0.604 Goal=   None    Shift=    0.000
 RMSDP=3.00D-05 MaxDP=2.73D-04 DE=-1.07D-07 OVMax= 2.60D-04

 Cycle   9  Pass 1  IDiag  1:
 E= -165.463738466654     Delta-E=       -0.000000075603 Rises=F Damp=F
 DIIS: error= 1.28D-05 at cycle   9 NSaved=   9.
 NSaved= 9 IEnMin= 9 EnMin= -165.463738466654     IErMin= 9 ErrMin= 1.28D-05
 ErrMax= 1.28D-05 EMaxC= 1.00D-01 BMatC= 8.05D-09 BMatP= 3.03D-08
 IDIUse=1 WtCom= 1.00D+00 WtEn= 0.00D+00
 Coeff-Com:  0.305D-02-0.159D-01 0.114D+00-0.133D+00-0.176D+00 0.766D+00
 Coeff-Com: -0.385D+00-0.158D+01 0.240D+01
 Coeff:      0.305D-02-0.159D-01 0.114D+00-0.133D+00-0.176D+00 0.766D+00
 Coeff:     -0.385D+00-0.158D+01 0.240D+01
 Gap=     0.616 Goal=   None    Shift=    0.000
 Gap=     0.604 Goal=   None    Shift=    0.000
 RMSDP=2.30D-05 MaxDP=2.46D-04 DE=-7.56D-08 OVMax= 1.82D-04

 Cycle  10  Pass 1  IDiag  1:
 E= -165.463738491952     Delta-E=       -0.000000025298 Rises=F Damp=F
 DIIS: error= 3.29D-06 at cycle  10 NSaved=  10.
 NSaved=10 IEnMin=10 EnMin= -165.463738491952     IErMin=10 ErrMin= 3.29D-06
 ErrMax= 3.29D-06 EMaxC= 1.00D-01 BMatC= 7.18D-10 BMatP= 8.05D-09
 IDIUse=1 WtCom= 1.00D+00 WtEn= 0.00D+00
 Coeff-Com: -0.133D-02 0.713D-02-0.534D-01 0.634D-01 0.772D-01-0.362D+00
 Coeff-Com:  0.210D+00 0.771D+00-0.147D+01 0.176D+01
 Coeff:     -0.133D-02 0.713D-02-0.534D-01 0.634D-01 0.772D-01-0.362D+00
 Coeff:      0.210D+00 0.771D+00-0.147D+01 0.176D+01
 Gap=     0.616 Goal=   None    Shift=    0.000
 Gap=     0.604 Goal=   None    Shift=    0.000
 RMSDP=6.23D-06 MaxDP=6.34D-05 DE=-2.53D-08 OVMax= 5.48D-05

 Cycle  11  Pass 1  IDiag  1:
 E= -165.463738493575     Delta-E=       -0.000000001623 Rises=F Damp=F
 DIIS: error= 9.25D-07 at cycle  11 NSaved=  11.
 NSaved=11 IEnMin=11 EnMin= -165.463738493575     IErMin=11 ErrMin= 9.25D-07
 ErrMax= 9.25D-07 EMaxC= 1.00D-01 BMatC= 6.74D-11 BMatP= 7.18D-10
 IDIUse=1 WtCom= 1.00D+00 WtEn= 0.00D+00
 Coeff-Com:  0.538D-03-0.294D-02 0.229D-01-0.284D-01-0.288D-01 0.150D+00
 Coeff-Com: -0.100D+00-0.311D+00 0.677D+00-0.108D+01 0.170D+01
 Coeff:      0.538D-03-0.294D-02 0.229D-01-0.284D-01-0.288D-01 0.150D+00
 Coeff:     -0.100D+00-0.311D+00 0.677D+00-0.108D+01 0.170D+01
 Gap=     0.616 Goal=   None    Shift=    0.000
 Gap=     0.604 Goal=   None    Shift=    0.000
 RMSDP=1.08D-06 MaxDP=8.87D-06 DE=-1.62D-09 OVMax= 3.39D-06

 Cycle  12  Pass 1  IDiag  1:
 E= -165.463738493665     Delta-E=       -0.000000000089 Rises=F Damp=F
 DIIS: error= 3.75D-07 at cycle  12 NSaved=  12.
 NSaved=12 IEnMin=12 EnMin= -165.463738493665     IErMin=12 ErrMin= 3.75D-07
 ErrMax= 3.75D-07 EMaxC= 1.00D-01 BMatC= 9.04D-12 BMatP= 6.74D-11
 IDIUse=1 WtCom= 1.00D+00 WtEn= 0.00D+00
 Coeff-Com: -0.186D-03 0.104D-02-0.819D-02 0.985D-02 0.105D-01-0.544D-01
 Coeff-Com:  0.322D-01 0.125D+00-0.274D+00 0.499D+00-0.112D+01 0.178D+01
 Coeff:     -0.186D-03 0.104D-02-0.819D-02 0.985D-02 0.105D-01-0.544D-01
 Coeff:      0.322D-01 0.125D+00-0.274D+00 0.499D+00-0.112D+01 0.178D+01
 Gap=     0.616 Goal=   None    Shift=    0.000
 Gap=     0.604 Goal=   None    Shift=    0.000
 RMSDP=4.61D-07 MaxDP=2.73D-06 DE=-8.94D-11 OVMax= 1.05D-06

 Cycle  13  Pass 1  IDiag  1:
 E= -165.463738493678     Delta-E=       -0.000000000013 Rises=F Damp=F
 DIIS: error= 1.00D-07 at cycle  13 NSaved=  13.
 NSaved=13 IEnMin=13 EnMin= -165.463738493678     IErMin=13 ErrMin= 1.00D-07
 ErrMax= 1.00D-07 EMaxC= 1.00D-01 BMatC= 8.68D-13 BMatP= 9.04D-12
 IDIUse=1 WtCom= 1.00D+00 WtEn= 0.00D+00
 Coeff-Com:  0.612D-04-0.348D-03 0.284D-02-0.340D-02-0.322D-02 0.183D-01
 Coeff-Com: -0.962D-02-0.458D-01 0.103D+00-0.209D+00 0.558D+00-0.122D+01
 Coeff-Com:  0.181D+01
 Coeff:      0.612D-04-0.348D-03 0.284D-02-0.340D-02-0.322D-02 0.183D-01
 Coeff:     -0.962D-02-0.458D-01 0.103D+00-0.209D+00 0.558D+00-0.122D+01
 Coeff:      0.181D+01
 Gap=     0.616 Goal=   None    Shift=    0.000
 Gap=     0.604 Goal=   None    Shift=    0.000
 RMSDP=1.70D-07 MaxDP=9.50D-07 DE=-1.34D-11 OVMax= 4.54D-07

 Cycle  14  Pass 1  IDiag  1:
 E= -165.463738493679     Delta-E=       -0.000000000001 Rises=F Damp=F
 DIIS: error= 2.77D-08 at cycle  14 NSaved=  14.
 NSaved=14 IEnMin=14 EnMin= -165.463738493679     IErMin=14 ErrMin= 2.77D-08
 ErrMax= 2.77D-08 EMaxC= 1.00D-01 BMatC= 5.09D-14 BMatP= 8.68D-13
 IDIUse=1 WtCom= 1.00D+00 WtEn= 0.00D+00
 Coeff-Com: -0.242D-04 0.137D-03-0.111D-02 0.129D-02 0.127D-02-0.717D-02
 Coeff-Com:  0.330D-02 0.188D-01-0.418D-01 0.881D-01-0.245D+00 0.570D+00
 Coeff-Com: -0.992D+00 0.160D+01
 Coeff:     -0.242D-04 0.137D-03-0.111D-02 0.129D-02 0.127D-02-0.717D-02
 Coeff:      0.330D-02 0.188D-01-0.418D-01 0.881D-01-0.245D+00 0.570D+00
 Coeff:     -0.992D+00 0.160D+01
 Gap=     0.616 Goal=   None    Shift=    0.000
 Gap=     0.604 Goal=   None    Shift=    0.000
 RMSDP=3.63D-08 MaxDP=2.47D-07 DE=-1.45D-12 OVMax= 1.30D-07

 Cycle  15  Pass 1  IDiag  1:
 E= -165.463738493679     Delta-E=        0.000000000000 Rises=F Damp=F
 DIIS: error= 8.59D-09 at cycle  15 NSaved=  15.
 NSaved=15 IEnMin=14 EnMin= -165.463738493679     IErMin=15 ErrMin= 8.59D-09
 ErrMax= 8.59D-09 EMaxC= 1.00D-01 BMatC= 6.58D-15 BMatP= 5.09D-14
 IDIUse=1 WtCom= 1.00D+00 WtEn= 0.00D+00
 Coeff-Com:  0.108D-04-0.611D-04 0.501D-03-0.562D-03-0.559D-03 0.322D-02
 Coeff-Com: -0.133D-02-0.862D-02 0.193D-01-0.413D-01 0.118D+00-0.286D+00
 Coeff-Com:  0.535D+00-0.118D+01 0.184D+01
 Coeff:      0.108D-04-0.611D-04 0.501D-03-0.562D-03-0.559D-03 0.322D-02
 Coeff:     -0.133D-02-0.862D-02 0.193D-01-0.413D-01 0.118D+00-0.286D+00
 Coeff:      0.535D+00-0.118D+01 0.184D+01
 Gap=     0.616 Goal=   None    Shift=    0.000
 Gap=     0.604 Goal=   None    Shift=    0.000
 RMSDP=1.36D-08 MaxDP=9.37D-08 DE= 1.14D-13 OVMax= 1.06D-07

 Cycle  16  Pass 1  IDiag  1:
 E= -165.463738493680     Delta-E=        0.000000000000 Rises=F Damp=F
 DIIS: error= 3.13D-09 at cycle  16 NSaved=  16.
 NSaved=16 IEnMin=16 EnMin= -165.463738493680     IErMin=16 ErrMin= 3.13D-09
 ErrMax= 3.13D-09 EMaxC= 1.00D-01 BMatC= 6.46D-16 BMatP= 6.58D-15
 IDIUse=1 WtCom= 1.00D+00 WtEn= 0.00D+00
 Large coefficients: NSaved= 16 BigCof=    0.00 CofMax=   10.00 Det=-2.29D-16
 Inversion failed.  Reducing to 15 matrices.
 Coeff-Com:  0.352D-06-0.725D-05-0.449D-05 0.119D-05-0.501D-04-0.130D-03
 Coeff-Com:  0.413D-03-0.896D-03 0.261D-02-0.102D-01 0.308D-01-0.706D-01
 Coeff-Com:  0.263D+00-0.727D+00 0.151D+01
 Coeff:      0.352D-06-0.725D-05-0.449D-05 0.119D-05-0.501D-04-0.130D-03
 Coeff:      0.413D-03-0.896D-03 0.261D-02-0.102D-01 0.308D-01-0.706D-01
 Coeff:      0.263D+00-0.727D+00 0.151D+01
 Gap=     0.616 Goal=   None    Shift=    0.000
 Gap=     0.604 Goal=   None    Shift=    0.000
 RMSDP=3.85D-09 MaxDP=2.57D-08 DE=-2.56D-13 OVMax= 2.10D-08

 SCF Done:  E(UHF) =  -165.463738494     A.U. after   16 cycles
             Convg  =    0.3855D-08             -V/T =  2.0078
 <Sx>= 0.0000 <Sy>= 0.0000 <Sz>= 1.0000 <S**2>= 2.2871 S= 1.0928
 <L.S>= 0.000000000000E+00
 KE= 1.641793235150D+02 PE=-5.000041851789D+02 EE= 1.155053651602D+02
 Annihilation of the first spin contaminant:
 S**2 before annihilation     2.2871,   after     2.0104
 Leave Link  502 at Thu Aug 16 22:56:54 2018, MaxMem=    8388608 cpu:       0.0
 (Enter C:\G09W\l701.exe)
 Compute integral first derivatives.
 ... and contract with generalized density number  0.
 Leave Link  701 at Thu Aug 16 22:56:54 2018, MaxMem=    8388608 cpu:       0.0
 (Enter C:\G09W\l702.exe)
 L702 exits ... SP integral derivatives will be done elsewhere.
 Leave Link  702 at Thu Aug 16 22:56:54 2018, MaxMem=    8388608 cpu:       0.0
 (Enter C:\G09W\l703.exe)
 Compute integral first derivatives, UseDBF=F ICtDFT=           0.
 Integral derivatives from FoFDir, PRISM(SPDF).
 Calling FoFJK, ICntrl=      2127 FMM=F ISym2X=1 I1Cent= 0 IOpClX= 1 NMat=1 NMatS=1 NMatT=0.
 FoFCou: FMM=F IPFlag=           0 FMFlag=      100000 FMFlg1=         800
         NFxFlg=           0 DoJE=F BraDBF=F KetDBF=F FulRan=T
         Omega=  0.000000  0.000000  1.000000  0.000000  0.000000 ICntrl=    2127 IOpCl=  1
         NMat0=    1 NMatS0=    1 NMatT0=    0 NMatD0=    1 NMtDS0=    0 NMtDT0=    0
         I1Cent=           0 NGrid=           0.
 Petite list used in FoFCou.
 Leave Link  703 at Thu Aug 16 22:56:55 2018, MaxMem=    8388608 cpu:       0.0
 (Enter C:\G09W\l716.exe)
 Dipole        = 5.32696176D-01 4.01237655D-01 2.89377474D-32
 ***** Axes restored to original set *****
 -------------------------------------------------------------------
 Center     Atomic                   Forces (Hartrees/Bohr)
 Number     Number              X              Y              Z
 -------------------------------------------------------------------
      1        1           0.000062263   -0.005787360    0.000000000
[...]
     4   Atom        0.274899      0.000000      0.000000
 --------------------------------------------------------


 ---------------------------------------------------------------------------------
              Anisotropic Spin Dipole Couplings in Principal Axis System
 ---------------------------------------------------------------------------------

       Atom             a.u.   MegaHertz   Gauss  10(-4) cm-1        Axes

              Baa    -0.1036   -55.295   -19.731   -18.444 -0.5207  0.8537  0.0000
     1 H(1)   Bbb    -0.0730   -38.943   -13.896   -12.990  0.0000  0.0000  1.0000
              Bcc     0.1766    94.238    33.627    31.435  0.8537  0.5207  0.0000
 
              Baa    -0.9955   -38.396   -13.700   -12.807  0.8652  0.5014  0.0000
     2 N(14)  Bbb    -0.3023   -11.658    -4.160    -3.889 -0.5014  0.8652  0.0000
              Bcc     1.2978    50.053    17.860    16.696  0.0000  0.0000  1.0000
 
              Baa    -0.9840  -132.047   -47.118   -44.046  0.0000  0.0000  1.0000
     3 C(13)  Bbb     0.0324     4.344     1.550     1.449  0.9674 -0.2533  0.0000
              Bcc     0.9517   127.704    45.568    42.597  0.2533  0.9674  0.0000
 
              Baa    -1.3610    98.484    35.141    32.851  0.9745 -0.2246  0.0000
     4 O(17)  Bbb    -0.1047     7.578     2.704     2.528  0.2246  0.9745  0.0000
              Bcc     1.4658  -106.062   -37.846   -35.379  0.0000  0.0000  1.0000
 

 ---------------------------------------------------------------------------------

 No NMR shielding tensors so no spin-rotation constants.
 Leave Link  601 at Thu Aug 16 22:57:04 2018, MaxMem=    8388608 cpu:       1.0
 (Enter C:\G09W\l701.exe)
 Compute integral second derivatives.
 ... and contract with generalized density number  0.
 Leave Link  701 at Thu Aug 16 22:57:04 2018, MaxMem=    8388608 cpu:       0.0
 (Enter C:\G09W\l702.exe)
 L702 exits ... SP integral derivatives will be done elsewhere.
 Leave Link  702 at Thu Aug 16 22:57:04 2018, MaxMem=    8388608 cpu:       0.0
 (Enter C:\G09W\l703.exe)
 Compute integral second derivatives, UseDBF=F ICtDFT=           0.
 Integral derivatives from FoFDir, PRISM(SPDF).
 Calling FoFJK, ICntrl=    100127 FMM=F ISym2X=1 I1Cent= 0 IOpClX= 1 NMat=1 NMatS=1 NMatT=0.
 FoFCou: FMM=F IPFlag=           0 FMFlag=      100000 FMFlg1=         800
         NFxFlg=           0 DoJE=F BraDBF=F KetDBF=F FulRan=T
         Omega=  0.000000  0.000000  1.000000  0.000000  0.000000 ICntrl=  100127 IOpCl=  1
         NMat0=    1 NMatS0=    1 NMatT0=    0 NMatD0=    1 NMtDS0=    0 NMtDT0=    0
         I1Cent=           0 NGrid=           0.
 Petite list used in FoFCou.
 Leave Link  703 at Thu Aug 16 22:57:05 2018, MaxMem=    8388608 cpu:       1.0
 (Enter C:\G09W\l716.exe)
 Dipole        = 5.38989576D-01 4.01378655D-01 3.58285662D-33
 Polarizability= 1.89196340D+01-1.99477582D-01 7.08850874D+00
                 4.52760373D-32 1.20274427D-31 7.66023324D+00
 HyperPolar    = 8.94884688D-01 3.25662881D+01-8.71126901D+00
                 2.95247817D+01 3.07114860D-30 6.39057168D-31
                 1.61808345D-30 1.49792735D+01 4.36982232D+01
                 6.81495339D-31
 Full mass-weighted force constant matrix:
 Low frequencies ---  -11.9112   -6.4608   -5.7524   -0.0010   -0.0009    0.0007
 Low frequencies ---  253.9940  577.1900  755.4954
 Harmonic frequencies (cm**-1), IR intensities (KM/Mole), Raman scattering
 activities (A**4/AMU), depolarization ratios for plane and unpolarized
 incident light, reduced masses (AMU), force constants (mDyne/A),
 and normal coordinates:
                     1                      2                      3
                    A"                     A'                     A'
 Frequencies --   253.9793               577.1899               755.4954
 Red. masses --     1.2165                 7.3101                12.3796
 Frc consts  --     0.0462                 1.4349                 4.1631
 IR Inten    --   122.3804                 1.4745                 8.7834
  Atom  AN      X      Y      Z        X      Y      Z        X      Y      Z
     1   1     0.00   0.00   0.99    -0.06   0.71   0.00    -0.09  -0.15   0.00
     2   7     0.00   0.00  -0.05     0.40   0.00   0.00    -0.36   0.39   0.00
     3   6     0.00   0.00  -0.10    -0.10  -0.41   0.00     0.68  -0.44   0.00
     4   8     0.00   0.00   0.06    -0.28   0.26   0.00    -0.18  -0.01   0.00
                     4                      5                      6
                    A'                     A'                     A'
 Frequencies --  1222.1100              1499.9382              3830.5712
 Red. masses --     2.3068                 1.9702                 1.0754
 Frc consts  --     2.0299                 2.6116                 9.2967
 IR Inten    --     8.2796                77.3606                 5.1014
  Atom  AN      X      Y      Z        X      Y      Z        X      Y      Z
     1   1     0.60  -0.73   0.00    -0.56   0.78   0.00     0.84   0.54   0.00
     2   7     0.12  -0.01   0.00     0.02  -0.13   0.00    -0.06  -0.04   0.00
     3   6     0.10   0.15   0.00     0.16   0.15   0.00     0.00   0.00   0.00
     4   8    -0.22  -0.06   0.00    -0.10  -0.05   0.00     0.00   0.00   0.00

 -------------------
 - Thermochemistry -
 -------------------
 Temperature   298.150 Kelvin.  Pressure   1.00000 Atm.
 Atom     1 has atomic number  1 and mass   1.00783
 Atom     2 has atomic number  7 and mass  14.00307
 Atom     3 has atomic number  6 and mass  12.00000
 Atom     4 has atomic number  8 and mass  15.99491
 Molecular mass:    43.00581 amu.
 Principal axes and moments of inertia in atomic units:
                           1         2         3
     Eigenvalues --    13.43227 163.05071 176.48298
           X            0.97582   0.21859   0.00000
           Y           -0.21859   0.97582   0.00000
           Z            0.00000   0.00000   1.00000
 This molecule is an asymmetric top.
 Rotational symmetry number  1.
 Rotational temperatures (Kelvin)      6.44819     0.53121     0.49078
 Rotational constants (GHZ):         134.35864    11.06859    10.22615
 Zero-point vibrational energy      48683.7 (Joules/Mol)
                                   11.63569 (Kcal/Mol)
 Warning -- explicit consideration of   2 degrees of freedom as
           vibrations may cause significant error
 Vibrational temperatures:    365.42   830.45  1086.99  1758.34  2158.07
          (Kelvin)           5511.33
 
 Zero-point correction=                           0.018543 (Hartree/Particle)
 Thermal correction to Energy=                    0.022142
 Thermal correction to Enthalpy=                  0.023086
 Thermal correction to Gibbs Free Energy=        -0.006592
 Sum of electronic and zero-point Energies=           -165.445564
 Sum of electronic and thermal Energies=              -165.441965
 Sum of electronic and thermal Enthalpies=            -165.441021
 Sum of electronic and thermal Free Energies=         -165.470698
 
                     E (Thermal)             CV                S
                      KCal/Mol        Cal/Mol-Kelvin    Cal/Mol-Kelvin
 Total                   13.894              9.791             62.461
 Electronic               0.000              0.000              2.183
 Translational            0.889              2.981             37.203
 Rotational               0.889              2.981             20.586
 Vibrational             12.117              3.829              2.490
 Vibration     1          0.665              1.756              1.703
 Vibration     2          0.934              1.081              0.491
                       Q            Log10(Q)             Ln(Q)
 Total Bot       0.107617D+04          3.031880          6.981161
 Total V=0       0.363823D+12         11.560890         26.619933
 Vib (Bot)       0.459810D-08         -8.337421        -19.197622
 Vib (Bot)    1  0.766997D+00         -0.115206         -0.265273
 Vib (Bot)    2  0.264750D+00         -0.577165         -1.328971
 Vib (V=0)       0.155449D+01          0.191589          0.441150
 Vib (V=0)    1  0.141558D+01          0.150934          0.347538
 Vib (V=0)    2  0.106577D+01          0.027662          0.063695
 Electronic      0.300000D+01          0.477121          1.098612
 Translational   0.110853D+08          7.044746         16.221127
 Rotational      0.703775D+04          3.847434          8.859044
 
                                                                  T1
                                                             IR Spectrum
 
     3                                                                             1        1                                        
     8                                                                             5        2              7     5          2        
     3                                                                             0        2              5     7          5        
     1                                                                             0        2              5     7          4        
 
     X                                                                             X        X              X     X          X        
                                                                                   X                                        X        
                                                                                   X                                        X        
                                                                                   X                                        X        
                                                                                   X                                        X        
                                                                                   X                                        X        
                                                                                   X                                        X        
                                                                                   X                                        X        
                                                                                   X                                        X        
                                                                                   X                                        X        
                                                                                   X                                        X        
                                                                                   X                                        X        
                                                                                   X                                        X        
                                                                                                                            X        
                                                                                                                            X        
                                                                                                                            X        
                                                                                                                            X        
                                                                                                                            X        
                                                                                                                            X        
                                                                                                                            X        
 
 ***** Axes restored to original set *****
 -------------------------------------------------------------------
 Center     Atomic                   Forces (Hartrees/Bohr)
 Number     Number              X              Y              Z
 -------------------------------------------------------------------
      1        1           0.000083762   -0.000030397    0.000000000
      2        7          -0.000072146   -0.000020381    0.000000000
      3        6          -0.000158613    0.000063881    0.000000000
      4        8           0.000146996   -0.000013103    0.000000000
 -------------------------------------------------------------------
 Cartesian Forces:  Max     0.000158613 RMS     0.000073359
 Force constants in Cartesian coordinates: 
                1             2             3             4             5 
      1  0.522408D+00
      2 -0.482893D-03  0.631686D-01
      3  0.000000D+00  0.000000D+00  0.201798D-02
      4 -0.513864D+00  0.626609D-01  0.000000D+00  0.636014D+00
      5 -0.197067D-01 -0.480526D-01  0.000000D+00  0.472676D-01  0.256917D+00
      6  0.000000D+00  0.000000D+00 -0.149513D-02  0.000000D+00  0.000000D+00
      7 -0.716903D-02 -0.602730D-01  0.000000D+00 -0.576599D-01  0.167424D+00
      8  0.248477D-01 -0.463355D-02  0.000000D+00 -0.334166D-01 -0.152191D+00
      9  0.000000D+00  0.000000D+00 -0.244295D-02  0.000000D+00  0.000000D+00
     10 -0.137444D-02 -0.190505D-02  0.000000D+00 -0.644896D-01 -0.194985D+00
     11 -0.465807D-02 -0.104824D-01  0.000000D+00 -0.765119D-01 -0.566739D-01
     12  0.000000D+00  0.000000D+00  0.192010D-02  0.000000D+00  0.000000D+00
                6             7             8             9            10 
      6  0.109070D-02
      7  0.000000D+00  0.442863D+00
      8  0.000000D+00 -0.559593D-01  0.187230D+00
      9  0.182866D-02  0.000000D+00  0.000000D+00  0.290690D-02
     10  0.000000D+00 -0.378034D+00  0.645283D-01  0.000000D+00  0.443899D+00
     11  0.000000D+00 -0.511915D-01 -0.304059D-01  0.000000D+00  0.132361D+00
     12 -0.142423D-02  0.000000D+00  0.000000D+00 -0.229261D-02  0.000000D+00
               11            12 
     11  0.975622D-01
     12  0.000000D+00  0.179675D-02
 Force constants in internal coordinates: 
                1             2             3             4             5 
      1  0.522065D+00
      2 -0.176663D-01  0.266673D+00
      3  0.248257D-02  0.223941D+00  0.487857D+00
      4  0.250465D-01  0.647292D-01  0.963132D-02  0.252941D+00
      5  0.903437D-02  0.636021D-01  0.451388D-01  0.455799D-01  0.300529D+00
      6  0.000000D+00  0.000000D+00  0.000000D+00  0.000000D+00  0.000000D+00
                6 
      6  0.728507D-02
 Leave Link  716 at Thu Aug 16 22:57:05 2018, MaxMem=    8388608 cpu:       0.0
 (Enter C:\G09W\l103.exe)

 GradGradGradGradGradGradGradGradGradGradGradGradGradGradGradGradGradGrad
 Berny optimization.
 Red2BG is reusing G-inverse.
 Internal  Forces:  Max     0.000137514 RMS     0.000088778
 Search for a local minimum.
 Step number   1 out of a maximum of    2
 All quantities printed in internal units (Hartrees-Bohrs-Radians)
 Second derivative matrix not updated -- analytic derivatives used.
 The second derivative matrix:
                          R1        R2        R3        A1        A2
           R1           0.52206
           R2          -0.01767   0.26667
           R3           0.00248   0.22394   0.48786
           A1           0.02505   0.06473   0.00963   0.25294
           A2           0.00903   0.06360   0.04514   0.04558   0.30053
           D1           0.00000   0.00000   0.00000   0.00000   0.00000
                          D1
           D1           0.00729
 ITU=  0
     Eigenvalues ---    0.00729   0.10691   0.23024   0.31840   0.52540
     Eigenvalues ---    0.64911
 Angle between quadratic step and forces=  27.79 degrees.
 Linear search not attempted -- first point.
 Iteration  1 RMS(Cart)=  0.00039473 RMS(Int)=  0.00000012
 Iteration  2 RMS(Cart)=  0.00000013 RMS(Int)=  0.00000000
 ClnCor:  largest displacement from symmetrization is 3.63D-15 for atom     3.
 Variable       Old X    -DE/DX   Delta X   Delta X   Delta X     New X
                                 (Linear)    (Quad)   (Total)
    R1        1.99631  -0.00008   0.00000  -0.00018  -0.00018   1.99613
    R2        2.70627   0.00005   0.00000  -0.00013  -0.00013   2.70615
    R3        2.36651   0.00014   0.00000   0.00038   0.00038   2.36689
    A1        1.84416   0.00006   0.00000   0.00035   0.00035   1.84451
    A2        2.15513  -0.00013   0.00000  -0.00050  -0.00050   2.15463
    D1        3.14159   0.00000   0.00000   0.00000   0.00000   3.14159
         Item               Value     Threshold  Converged?
 Maximum Force            0.000138     0.000450     YES
 RMS     Force            0.000089     0.000300     YES
 Maximum Displacement     0.000456     0.001800     YES
 RMS     Displacement     0.000395     0.001200     YES
 Predicted change in Energy=-7.208497D-08
 Optimization completed.
    -- Stationary point found.
                           ----------------------------
                           !   Optimized Parameters   !
                           ! (Angstroms and Degrees)  !
 --------------------------                            --------------------------
 ! Name  Definition              Value          Derivative Info.                !
 --------------------------------------------------------------------------------
 ! R1    R(1,2)                  1.0564         -DE/DX =   -0.0001              !
 ! R2    R(2,3)                  1.4321         -DE/DX =    0.0                 !
 ! R3    R(3,4)                  1.2523         -DE/DX =    0.0001              !
 ! A1    A(1,2,3)              105.6625         -DE/DX =    0.0001              !
 ! A2    A(2,3,4)              123.4797         -DE/DX =   -0.0001              !
 ! D1    D(1,2,3,4)            180.0            -DE/DX =    0.0                 !
 --------------------------------------------------------------------------------
 GradGradGradGradGradGradGradGradGradGradGradGradGradGradGradGradGradGrad

 Leave Link  103 at Thu Aug 16 22:57:05 2018, MaxMem=    8388608 cpu:       0.0
 (Enter C:\G09W\l9999.exe)
 1|1|UNPC-WIN-8HSJDRD3B42|Freq|UHF|STO-3G|C1H1N1O1(3)|ADMINISTRATOR|16-
 Aug-2018|0||#P Geom=AllCheck Guess=TCheck SCRF=Check GenChk UHF/STO-3G
  Freq||T1||0,3|H,-0.0425857967,-0.0182139951,0.|N,1.0133870806,-0.0482
 282484,0.|C,1.4390335918,1.3191531737,0.|O,2.6416806043,1.6683051798,0
 .||Version=IA32W-G09RevC.01|State=3-A"|HF=-165.4641066|S2=2.303074|S2-
 1=0.|S2A=2.010398|RMSD=3.723e-010|RMSF=7.336e-005|ZeroPoint=0.0185427|
 Thermal=0.0221416|Dipole=-0.6701953,0.0495268,0.|DipoleDeriv=-0.029427
 3,0.0713939,0.,0.1338068,0.2306281,0.,0.,0.,0.3701563,0.0898796,0.0445
 772,0.,-0.1112271,0.0140269,0.,0.,0.,-0.3738407,-0.2452817,-0.3796206,
 0.,-0.1104589,-0.1853201,0.,0.,0.,-0.0251307,0.1848294,0.2636494,0.,0.
 0878793,-0.0593348,0.,0.,0.,0.0288151|Polar=15.3331583,5.4414177,10.67
 49845,0.,0.,7.6602332|HyperPolar=-36.0784202,5.2672673,9.3603748,51.32
 37466,0.,0.,0.,-36.0863516,28.8390112,0.|PG=CS [SG(C1H1N1O1)]|NImag=0|
 |0.52240783,-0.00048289,0.06316860,0.,0.,0.00201798,-0.51386436,0.0626
 6093,0.,0.63601386,-0.01970669,-0.04805261,0.,0.04726757,0.25691704,0.
 ,0.,-0.00149513,0.,0.,0.00109070,-0.00716903,-0.06027299,0.,-0.0576598
 7,0.16742380,0.,0.44286337,0.02484766,-0.00463355,0.,-0.03341664,-0.15
 219056,0.,-0.05595930,0.18723001,0.,0.,-0.00244295,0.,0.,0.00182866,0.
 ,0.,0.00290690,-0.00137444,-0.00190505,0.,-0.06448964,-0.19498468,0.,-
 0.37803447,0.06452828,0.,0.44389855,-0.00465807,-0.01048244,0.,-0.0765
 1186,-0.05667388,0.,-0.05119150,-0.03040590,0.,0.13236144,0.09756221,0
 .,0.,0.00192010,0.,0.,-0.00142423,0.,0.,-0.00229261,0.,0.,0.00179675||
 -0.00008376,0.00003040,0.,0.00007215,0.00002038,0.,0.00015861,-0.00006
 388,0.,-0.00014700,0.00001310,0.|||@


 ONLY THE DAY DAWNS TO WHICH YOU ARE AWAKE.

                                 -- THOREAU
 Job cpu time:  0 days  0 hours  0 minutes  3.0 seconds.
 File lengths (MBytes):  RWF=      5 Int=      0 D2E=      0 Chk=      1 Scr=      1
 Normal termination of Gaussian 09 at Thu Aug 16 22:57:05 2018.
