 Entering Gaussian System, Link 0=g16
 Input=State1_3.gjf
 Output=State1_3.out
 Initial command:
 C:\G16W\l1.exe ".\Gau-6884.inp" "State1_3.out" /scrdir=".\"
 Entering Link 1 = C:\G16W\l1.exe PID=      3180.
  
 Copyright (c) 1988,1990,1992,1993,1995,1998,2003,2009,2016,
            Gaussian, Inc.  All Rights Reserved.
  
 This is part of the Gaussian(R) 16 program.  It is based on
 the Gaussian(R) 09 system (copyright 2009, Gaussian, Inc.),
 the Gaussian(R) 03 system (copyright 2003, Gaussian, Inc.),
 the Gaussian(R) 98 system (copyright 1998, Gaussian, Inc.),
 the Gaussian(R) 94 system (copyright 1995, Gaussian, Inc.),
 the Gaussian 92(TM) system (copyright 1992, Gaussian, Inc.),
 the Gaussian 90(TM) system (copyright 1990, Gaussian, Inc.),
 the Gaussian 88(TM) system (copyright 1988, Gaussian, Inc.),
 the Gaussian 86(TM) system (copyright 1986, Carnegie Mellon
 University), and the Gaussian 82(TM) system (copyright 1983,
 Carnegie Mellon University). Gaussian is a federally registered
 trademark of Gaussian, Inc.
  
 This software contains proprietary and confidential information,
 including trade secrets, belonging to Gaussian, Inc.
  
 This software is provided under written license and may be
 used, copied, transmitted, or stored only in accord with that
 written license.
  
 The following legend is applicable only to US Government
 contracts under FAR:
  
                    RESTRICTED RIGHTS LEGEND
  
 Use, reproduction and disclosure by the US Government is
 subject to restrictions as set forth in subparagraphs (a)
 and (c) of the Commercial Computer Software - Restricted
 Rights clause in FAR 52.227-19.
  
 Gaussian, Inc.
 340 Quinnipiac St., Bldg. 40, Wallingford CT 06492
  
  
 ---------------------------------------------------------------
 Warning -- This program may not be used in any manner that
 competes with the business of Gaussian, Inc. or will provide
 assistance to any competitor of Gaussian, Inc.  The licensee
 of this program is prohibited from giving any competitor of
 Gaussian, Inc. access to this program.  By using this program,
 the user acknowledges that Gaussian, Inc. is engaged in the
 business of creating and licensing software in the field of
 computational chemistry and represents and warrants to the
 licensee that it is not a competitor of Gaussian, Inc. and that
 it will not use this program in any manner prohibited above.
 ---------------------------------------------------------------
  

 Cite this work as:
 Gaussian 16, Revision A.03,
 M. J. Frisch, G. W. Trucks, H. B. Schlegel, G. E. Scuseria, 
 M. A. Robb, J. R. Cheeseman, G. Scalmani, V. Barone, 
 G. A. Petersson, H. Nakatsuji, X. Li, M. Caricato, A. V. Marenich, 
 J. Bloino, B. G. Janesko, R. Gomperts, B. Mennucci, H. P. Hratchian, 
 J. V. Ortiz, A. F. Izmaylov, J. L. Sonnenberg, D. Williams-Young, 
 F. Ding, F. Lipparini, F. Egidi, J. Goings, B. Peng, A. Petrone, 
 T. Henderson, D. Ranasinghe, V. G. Zakrzewski, J. Gao, N. Rega, 
 G. Zheng, W. Liang, M. Hada, M. Ehara, K. Toyota, R. Fukuda, 
 J. Hasegawa, M. Ishida, T. Nakajima, Y. Honda, O. Kitao, H. Nakai, 
 T. Vreven, K. Throssell, J. A. Montgomery, Jr., J. E. Peralta, 
 F. Ogliaro, M. J. Bearpark, J. J. Heyd, E. N. Brothers, K. N. Kudin, 
 V. N. Staroverov, T. A. Keith, R. Kobayashi, J. Normand, 
 K. Raghavachari, A. P. Rendell, J. C. Burant, S. S. Iyengar, 
 J. Tomasi, M. Cossi, J. M. Millam, M. Klene, C. Adamo, R. Cammi, 
 J. W. Ochterski, R. L. Martin, K. Morokuma, O. Farkas, 
 J. B. Foresman, and D. J. Fox, Gaussian, Inc., Wallingford CT, 2016.
 
 ******************************************
 Gaussian 16:  EM64W-G16RevA.03 17-Dec-2016
                15-Apr-2022 
 ******************************************
 %mem=1000mb
 %chk=LiuKun1.chk
 ------------------------------------------------------
 #p sto-3g scf=maxcycle=999 freq=noraman IOP(7/33=1) hf
 ------------------------------------------------------
 1/10=4,30=1,38=1/1,3;
 2/12=2,17=6,18=5,40=1/2;
 3/6=3,11=9,25=1,30=1,71=2,140=1/1,2,3;
 4//1;
 5/5=2,7=999,38=5,98=1/2;
 8/6=4,10=90,11=11/1;
 11/6=1,8=1,9=11,15=111,16=1/1,2,10;
 10/6=1/2;
 6/7=2,8=2,9=2,10=2,28=1/1;
 7/8=1,10=1,25=1,33=1/1,2,3,16;
 1/10=4,30=1/3;
 99//99;
 Leave Link    1 at Fri Apr 15 18:54:02 2022, MaxMem=   131072000 cpu:               0.0 elap:               0.0
 (Enter C:\G16W\l101.exe)
 --
 T1
 --
 Symbolic Z-matrix:
 Charge =  0 Multiplicity = 1
 H
 N                    1    B1
 C                    2    B2       1    A1
 O                    3    B3       2    A2       1    D1       0
       Variables:
  B1                    1.05219                  
  B2                    1.39031                  
  B3                    1.20341                  
  A1                  107.14165                  
  A2                  133.22724                  
  D1                  175.80969                  
 
 ITRead=  0  0  0  0
 MicOpt= -1 -1 -1 -1
 NAtoms=      4 NQM=        4 NQMF=       0 NMMI=      0 NMMIF=      0
                NMic=       0 NMicF=      0.
                    Isotopes and Nuclear Properties:
 (Nuclear quadrupole moments (NQMom) in fm**2, nuclear magnetic moments (NMagM)
  in nuclear magnetons)

  Atom         1           2           3           4
 IAtWgt=           1          14          12          16
 AtmWgt=   1.0078250  14.0030740  12.0000000  15.9949146
 NucSpn=           1           2           0           0
 AtZEff=   0.0000000   0.0000000   0.0000000   0.0000000
 NQMom=    0.0000000   2.0440000   0.0000000   0.0000000
 NMagM=    2.7928460   0.4037610   0.0000000   0.0000000
 AtZNuc=   1.0000000   7.0000000   6.0000000   8.0000000
 Leave Link  101 at Fri Apr 15 18:54:02 2022, MaxMem=   131072000 cpu:               0.0 elap:               0.1
 (Enter C:\G16W\l103.exe)

 GradGradGradGradGradGradGradGradGradGradGradGradGradGradGradGradGradGrad
 Berny optimization.
 Initialization pass.
                       ----------------------------
                       !    Initial Parameters    !
                       ! (Angstroms and Degrees)  !
 ----------------------                            ----------------------
 !      Name          Value   Derivative information (Atomic Units)     !
 ------------------------------------------------------------------------
 !       B1          1.0522   calculate D2E/DX2 analytically            !
 !       B2          1.3903   calculate D2E/DX2 analytically            !
 !       B3          1.2034   calculate D2E/DX2 analytically            !
 !       A1        107.1417   calculate D2E/DX2 analytically            !
 !       A2        133.2272   calculate D2E/DX2 analytically            !
 !       D1        175.8097   calculate D2E/DX2 analytically            !
 ------------------------------------------------------------------------
 Trust Radius=3.00D-01 FncErr=1.00D-07 GrdErr=1.00D-07 EigMax=2.50D+02 EigMin=1.00D-04
 Number of steps in this run=      2 maximum allowed number of steps=      2.
 GradGradGradGradGradGradGradGradGradGradGradGradGradGradGradGradGradGrad

 Leave Link  103 at Fri Apr 15 18:54:02 2022, MaxMem=   131072000 cpu:               0.0 elap:               0.0
 (Enter C:\G16W\l202.exe)
                          Input orientation:                          
 ---------------------------------------------------------------------
 Center     Atomic      Atomic             Coordinates (Angstroms)
 Number     Number       Type             X           Y           Z
 ---------------------------------------------------------------------
      1          1           0        0.000000    0.000000    0.000000
      2          7           0        0.000000    0.000000    1.052186
      3          6           0        1.328551    0.000000    1.461959
      4          8           0        1.858399    0.064072    2.540550
 ---------------------------------------------------------------------
                    Distance matrix (angstroms):
                    1          2          3          4
     1  H    0.000000
     2  N    1.052186   0.000000
     3  C    1.975442   1.390310   0.000000
     4  O    3.148356   2.381802   1.203413   0.000000
 Stoichiometry    CHNO
 Framework group  C1[X(CHNO)]
 Deg. of freedom     6
 Full point group                 C1      NOp   1
 Largest Abelian subgroup         C1      NOp   1
 Largest concise Abelian subgroup C1      NOp   1
                         Standard orientation:                         
 ---------------------------------------------------------------------
 Center     Atomic      Atomic             Coordinates (Angstroms)
 Number     Number       Type             X           Y           Z
 ---------------------------------------------------------------------
      1          1           0       -1.877029    0.547481    0.044972
      2          7           0       -1.178129   -0.237558   -0.003491
      3          6           0        0.086633    0.339736   -0.012010
      4          8           0        1.200516   -0.115374    0.006441
 ---------------------------------------------------------------------
 Rotational constants (GHZ):         189.8012850          10.9676455          10.3702579
 Leave Link  202 at Fri Apr 15 18:54:02 2022, MaxMem=   131072000 cpu:               0.0 elap:               0.0
 (Enter C:\G16W\l301.exe)
 Standard basis: STO-3G (5D, 7F)
 Ernie: Thresh=  0.10000D-02 Tol=  0.10000D-05 Strict=F.
 There are    16 symmetry adapted cartesian basis functions of A   symmetry.
 There are    16 symmetry adapted basis functions of A   symmetry.
    16 basis functions,    48 primitive gaussians,    16 cartesian basis functions
    11 alpha electrons       11 beta electrons
       nuclear repulsion energy        56.0072578123 Hartrees.
 IExCor=    0 DFT=F Ex=HF Corr=None ExCW=0 ScaHFX=  1.000000
 ScaDFX=  1.000000  1.000000  1.000000  1.000000 ScalE2=  1.000000  1.000000
 IRadAn=      5 IRanWt=     -1 IRanGd=            0 ICorTp=0 IEmpDi=  4
 NAtoms=    4 NActive=    4 NUniq=    4 SFac= 1.00D+00 NAtFMM=   60 NAOKFM=F Big=F
 Integral buffers will be    131072 words long.
 Raffenetti 1 integral format.
 Two-electron integral symmetry is turned on.
 Leave Link  301 at Fri Apr 15 18:54:03 2022, MaxMem=   131072000 cpu:               1.0 elap:               0.1
 (Enter C:\G16W\l302.exe)
 NPDir=0 NMtPBC=     1 NCelOv=     1 NCel=       1 NClECP=     1 NCelD=      1
         NCelK=      1 NCelE2=     1 NClLst=     1 CellRange=     0.0.
 One-electron integrals computed using PRISM.
 One-electron integral symmetry used in STVInt
 NBasis=    16 RedAO= T EigKep=  2.46D-01  NBF=    16
 NBsUse=    16 1.00D-06 EigRej= -1.00D+00 NBFU=    16
 Leave Link  302 at Fri Apr 15 18:54:03 2022, MaxMem=   131072000 cpu:               0.0 elap:               0.1
 (Enter C:\G16W\l303.exe)
 DipDrv:  MaxL=1.
 Leave Link  303 at Fri Apr 15 18:54:03 2022, MaxMem=   131072000 cpu:               0.0 elap:               0.0
 (Enter C:\G16W\l401.exe)
 ExpMin= 1.69D-01 ExpMax= 1.31D+02 ExpMxC= 1.31D+02 IAcc=3 IRadAn=         5 AccDes= 0.00D+00
 Harris functional with IExCor=  205 and IRadAn=       5 diagonalized for initial guess.
 HarFok:  IExCor=  205 AccDes= 0.00D+00 IRadAn=         5 IDoV= 1 UseB2=F ITyADJ=14
 ICtDFT=  3500011 ScaDFX=  1.000000  1.000000  1.000000  1.000000
 FoFCou: FMM=F IPFlag=           0 FMFlag=      100000 FMFlg1=           0
         NFxFlg=           0 DoJE=T BraDBF=F KetDBF=T FulRan=T
         wScrn=  0.000000 ICntrl=       500 IOpCl=  0 I1Cent=   200000004 NGrid=           0
         NMat0=    1 NMatS0=      1 NMatT0=    0 NMatD0=    1 NMtDS0=    0 NMtDT0=    0
 Petite list used in FoFCou.
 Harris En= -165.508034923060    
 JPrj=0 DoOrth=F DoCkMO=F.
 Leave Link  401 at Fri Apr 15 18:54:03 2022, MaxMem=   131072000 cpu:               0.0 elap:               0.2
 (Enter C:\G16W\l502.exe)
 Keep R1 ints in memory in canonical form, NReq=814141.
 FoFCou: FMM=F IPFlag=           0 FMFlag=           0 FMFlg1=           0
         NFxFlg=           0 DoJE=F BraDBF=F KetDBF=F FulRan=T
         wScrn=  0.000000 ICntrl=       600 IOpCl=  0 I1Cent=           0 NGrid=           0
         NMat0=    1 NMatS0=    136 NMatT0=    0 NMatD0=    1 NMtDS0=    0 NMtDT0=    0
 Symmetry not used in FoFCou.
 Two-electron integral symmetry not used.
 Closed shell SCF:
 Using DIIS extrapolation, IDIIS=  1040.
 NGot=   131072000 LenX=   131061257 LenY=   131060375
 Requested convergence on RMS density matrix=1.00D-08 within 999 cycles.
 Requested convergence on MAX density matrix=1.00D-06.
 Requested convergence on             energy=1.00D-06.
 No special actions if energy rises.

 Cycle   1  Pass 1  IDiag  1:
 E= -165.403930673048    
 DIIS: error= 4.75D-02 at cycle   1 NSaved=   1.
 NSaved= 1 IEnMin= 1 EnMin= -165.403930673048     IErMin= 1 ErrMin= 4.75D-02
 ErrMax= 4.75D-02  0.00D+00 EMaxC= 1.00D-01 BMatC= 4.98D-02 BMatP= 4.98D-02
 IDIUse=3 WtCom= 5.25D-01 WtEn= 4.75D-01
 Coeff-Com:  0.100D+01
 Coeff-En:   0.100D+01
 Coeff:      0.100D+01
 Gap=     0.385 Goal=   None    Shift=    0.000
 GapD=    0.385 DampG=1.000 DampE=0.500 DampFc=0.5000 IDamp=-1.
 Damping current iteration by 5.00D-01
 RMSDP=2.29D-02 MaxDP=1.30D-01              OVMax= 0.00D+00

 Cycle   2  Pass 1  IDiag  1:
 E= -165.427525606389     Delta-E=       -0.023594933342 Rises=F Damp=T
 DIIS: error= 1.65D-02 at cycle   2 NSaved=   2.
 NSaved= 2 IEnMin= 2 EnMin= -165.427525606389     IErMin= 2 ErrMin= 1.65D-02
 ErrMax= 1.65D-02  0.00D+00 EMaxC= 1.00D-01 BMatC= 7.35D-03 BMatP= 4.98D-02
 IDIUse=3 WtCom= 8.35D-01 WtEn= 1.65D-01
 Coeff-Com: -0.321D+00 0.132D+01
 Coeff-En:   0.000D+00 0.100D+01
 Coeff:     -0.268D+00 0.127D+01
 Gap=     0.475 Goal=   None    Shift=    0.000
 RMSDP=6.80D-03 MaxDP=2.92D-02 DE=-2.36D-02 OVMax= 0.00D+00

 Cycle   3  Pass 1  IDiag  1:
 E= -165.452419326410     Delta-E=       -0.024893720021 Rises=F Damp=F
 DIIS: error= 6.94D-03 at cycle   3 NSaved=   3.
 NSaved= 3 IEnMin= 3 EnMin= -165.452419326410     IErMin= 3 ErrMin= 6.94D-03
 ErrMax= 6.94D-03  0.00D+00 EMaxC= 1.00D-01 BMatC= 1.05D-03 BMatP= 7.35D-03
 IDIUse=3 WtCom= 9.31D-01 WtEn= 6.94D-02
 Coeff-Com: -0.163D+00 0.238D+00 0.925D+00
 Coeff-En:   0.000D+00 0.000D+00 0.100D+01
 Coeff:     -0.151D+00 0.221D+00 0.930D+00
 Gap=     0.475 Goal=   None    Shift=    0.000
 RMSDP=3.21D-03 MaxDP=1.81D-02 DE=-2.49D-02 OVMax= 0.00D+00

 Cycle   4  Pass 1  IDiag  1:
 E= -165.454059341585     Delta-E=       -0.001640015175 Rises=F Damp=F
 DIIS: error= 2.25D-03 at cycle   4 NSaved=   4.
 NSaved= 4 IEnMin= 4 EnMin= -165.454059341585     IErMin= 4 ErrMin= 2.25D-03
 ErrMax= 2.25D-03  0.00D+00 EMaxC= 1.00D-01 BMatC= 1.75D-04 BMatP= 1.05D-03
 IDIUse=3 WtCom= 9.78D-01 WtEn= 2.25D-02
 Coeff-Com: -0.434D-01 0.132D-01 0.251D+00 0.779D+00
 Coeff-En:   0.000D+00 0.000D+00 0.000D+00 0.100D+01
 Coeff:     -0.424D-01 0.129D-01 0.246D+00 0.784D+00
 Gap=     0.479 Goal=   None    Shift=    0.000
 RMSDP=1.43D-03 MaxDP=8.03D-03 DE=-1.64D-03 OVMax= 0.00D+00

 Cycle   5  Pass 1  IDiag  1:
 E= -165.454364161376     Delta-E=       -0.000304819791 Rises=F Damp=F
 DIIS: error= 1.89D-03 at cycle   5 NSaved=   5.
 NSaved= 5 IEnMin= 5 EnMin= -165.454364161376     IErMin= 5 ErrMin= 1.89D-03
 ErrMax= 1.89D-03  0.00D+00 EMaxC= 1.00D-01 BMatC= 3.89D-05 BMatP= 1.75D-04
 IDIUse=3 WtCom= 9.81D-01 WtEn= 1.89D-02
 Coeff-Com:  0.405D-01-0.560D-01-0.322D+00 0.682D-01 0.127D+01
 Coeff-En:   0.000D+00 0.000D+00 0.000D+00 0.000D+00 0.100D+01
 Coeff:      0.397D-01-0.549D-01-0.316D+00 0.670D-01 0.126D+01
 Gap=     0.481 Goal=   None    Shift=    0.000
 RMSDP=1.12D-03 MaxDP=6.65D-03 DE=-3.05D-04 OVMax= 0.00D+00

 Cycle   6  Pass 1  IDiag  1:
 E= -165.454483154728     Delta-E=       -0.000118993352 Rises=F Damp=F
 DIIS: error= 2.97D-04 at cycle   6 NSaved=   6.
 NSaved= 6 IEnMin= 6 EnMin= -165.454483154728     IErMin= 6 ErrMin= 2.97D-04
 ErrMax= 2.97D-04  0.00D+00 EMaxC= 1.00D-01 BMatC= 1.33D-06 BMatP= 3.89D-05
 IDIUse=3 WtCom= 9.97D-01 WtEn= 2.97D-03
 Coeff-Com: -0.200D-01 0.289D-01 0.171D+00-0.678D-01-0.714D+00 0.160D+01
 Coeff-En:   0.000D+00 0.000D+00 0.000D+00 0.000D+00 0.000D+00 0.100D+01
 Coeff:     -0.199D-01 0.288D-01 0.170D+00-0.676D-01-0.712D+00 0.160D+01
 Gap=     0.481 Goal=   None    Shift=    0.000
 RMSDP=2.96D-04 MaxDP=1.70D-03 DE=-1.19D-04 OVMax= 0.00D+00

 Cycle   7  Pass 1  IDiag  1:
 E= -165.454491616541     Delta-E=       -0.000008461814 Rises=F Damp=F
 DIIS: error= 9.66D-05 at cycle   7 NSaved=   7.
 NSaved= 7 IEnMin= 7 EnMin= -165.454491616541     IErMin= 7 ErrMin= 9.66D-05
 ErrMax= 9.66D-05  0.00D+00 EMaxC= 1.00D-01 BMatC= 2.33D-07 BMatP= 1.33D-06
 IDIUse=1 WtCom= 1.00D+00 WtEn= 0.00D+00
 Coeff-Com:  0.108D-01-0.160D-01-0.976D-01 0.561D-01 0.383D+00-0.121D+01
 Coeff-Com:  0.188D+01
 Coeff:      0.108D-01-0.160D-01-0.976D-01 0.561D-01 0.383D+00-0.121D+01
 Coeff:      0.188D+01
 Gap=     0.481 Goal=   None    Shift=    0.000
 RMSDP=1.75D-04 MaxDP=7.83D-04 DE=-8.46D-06 OVMax= 0.00D+00

 Cycle   8  Pass 1  IDiag  1:
 E= -165.454493578618     Delta-E=       -0.000001962077 Rises=F Damp=F
 DIIS: error= 6.31D-05 at cycle   8 NSaved=   8.
 NSaved= 8 IEnMin= 8 EnMin= -165.454493578618     IErMin= 8 ErrMin= 6.31D-05
 ErrMax= 6.31D-05  0.00D+00 EMaxC= 1.00D-01 BMatC= 4.88D-08 BMatP= 2.33D-07
 IDIUse=1 WtCom= 1.00D+00 WtEn= 0.00D+00
 Coeff-Com: -0.576D-02 0.822D-02 0.608D-01-0.425D-01-0.217D+00 0.812D+00
 Coeff-Com: -0.156D+01 0.194D+01
 Coeff:     -0.576D-02 0.822D-02 0.608D-01-0.425D-01-0.217D+00 0.812D+00
 Coeff:     -0.156D+01 0.194D+01
 Gap=     0.481 Goal=   None    Shift=    0.000
 RMSDP=8.30D-05 MaxDP=3.22D-04 DE=-1.96D-06 OVMax= 0.00D+00

 Cycle   9  Pass 1  IDiag  1:
 E= -165.454494040337     Delta-E=       -0.000000461718 Rises=F Damp=F
 DIIS: error= 2.94D-05 at cycle   9 NSaved=   9.
 NSaved= 9 IEnMin= 9 EnMin= -165.454494040337     IErMin= 9 ErrMin= 2.94D-05
 ErrMax= 2.94D-05  0.00D+00 EMaxC= 1.00D-01 BMatC= 1.30D-08 BMatP= 4.88D-08
 IDIUse=1 WtCom= 1.00D+00 WtEn= 0.00D+00
 Coeff-Com:  0.232D-02-0.302D-02-0.339D-01 0.240D-01 0.112D+00-0.478D+00
 Coeff-Com:  0.105D+01-0.207D+01 0.239D+01
 Coeff:      0.232D-02-0.302D-02-0.339D-01 0.240D-01 0.112D+00-0.478D+00
 Coeff:      0.105D+01-0.207D+01 0.239D+01
 Gap=     0.481 Goal=   None    Shift=    0.000
 RMSDP=7.32D-05 MaxDP=2.83D-04 DE=-4.62D-07 OVMax= 0.00D+00

 Cycle  10  Pass 1  IDiag  1:
 E= -165.454494224850     Delta-E=       -0.000000184513 Rises=F Damp=F
 DIIS: error= 1.25D-05 at cycle  10 NSaved=  10.
 NSaved=10 IEnMin=10 EnMin= -165.454494224850     IErMin=10 ErrMin= 1.25D-05
 ErrMax= 1.25D-05  0.00D+00 EMaxC= 1.00D-01 BMatC= 1.64D-09 BMatP= 1.30D-08
 IDIUse=1 WtCom= 1.00D+00 WtEn= 0.00D+00
 Coeff-Com: -0.876D-03 0.103D-02 0.161D-01-0.117D-01-0.500D-01 0.236D+00
 Coeff-Com: -0.549D+00 0.124D+01-0.179D+01 0.191D+01
 Coeff:     -0.876D-03 0.103D-02 0.161D-01-0.117D-01-0.500D-01 0.236D+00
 Coeff:     -0.549D+00 0.124D+01-0.179D+01 0.191D+01
 Gap=     0.481 Goal=   None    Shift=    0.000
 RMSDP=2.33D-05 MaxDP=9.64D-05 DE=-1.85D-07 OVMax= 0.00D+00

 Cycle  11  Pass 1  IDiag  1:
 E= -165.454494246199     Delta-E=       -0.000000021350 Rises=F Damp=F
 DIIS: error= 6.03D-06 at cycle  11 NSaved=  11.
 NSaved=11 IEnMin=11 EnMin= -165.454494246199     IErMin=11 ErrMin= 6.03D-06
 ErrMax= 6.03D-06  0.00D+00 EMaxC= 1.00D-01 BMatC= 3.60D-10 BMatP= 1.64D-09
 IDIUse=1 WtCom= 1.00D+00 WtEn= 0.00D+00
 Coeff-Com:  0.703D-03-0.807D-03-0.136D-01 0.102D-01 0.411D-01-0.199D+00
 Coeff-Com:  0.458D+00-0.105D+01 0.157D+01-0.202D+01 0.221D+01
 Coeff:      0.703D-03-0.807D-03-0.136D-01 0.102D-01 0.411D-01-0.199D+00
 Coeff:      0.458D+00-0.105D+01 0.157D+01-0.202D+01 0.221D+01
 Gap=     0.481 Goal=   None    Shift=    0.000
 RMSDP=1.13D-05 MaxDP=5.29D-05 DE=-2.13D-08 OVMax= 0.00D+00

 Cycle  12  Pass 1  IDiag  1:
 E= -165.454494251160     Delta-E=       -0.000000004961 Rises=F Damp=F
 DIIS: error= 2.48D-06 at cycle  12 NSaved=  12.
 NSaved=12 IEnMin=12 EnMin= -165.454494251160     IErMin=12 ErrMin= 2.48D-06
 ErrMax= 2.48D-06  0.00D+00 EMaxC= 1.00D-01 BMatC= 1.08D-10 BMatP= 3.60D-10
 IDIUse=1 WtCom= 1.00D+00 WtEn= 0.00D+00
 Coeff-Com:  0.445D-04-0.164D-03 0.281D-02-0.255D-02-0.579D-02 0.465D-01
 Coeff-Com: -0.120D+00 0.358D+00-0.617D+00 0.111D+01-0.214D+01 0.237D+01
 Coeff:      0.445D-04-0.164D-03 0.281D-02-0.255D-02-0.579D-02 0.465D-01
 Coeff:     -0.120D+00 0.358D+00-0.617D+00 0.111D+01-0.214D+01 0.237D+01
 Gap=     0.481 Goal=   None    Shift=    0.000
 RMSDP=7.21D-06 MaxDP=2.91D-05 DE=-4.96D-09 OVMax= 0.00D+00

 Cycle  13  Pass 1  IDiag  1:
 E= -165.454494252758     Delta-E=       -0.000000001598 Rises=F Damp=F
 DIIS: error= 6.95D-07 at cycle  13 NSaved=  13.
 NSaved=13 IEnMin=13 EnMin= -165.454494252758     IErMin=13 ErrMin= 6.95D-07
 ErrMax= 6.95D-07  0.00D+00 EMaxC= 1.00D-01 BMatC= 1.07D-11 BMatP= 1.08D-10
 IDIUse=1 WtCom= 1.00D+00 WtEn= 0.00D+00
 Coeff-Com: -0.285D-05 0.636D-04-0.188D-02 0.160D-02 0.434D-02-0.308D-01
 Coeff-Com:  0.760D-01-0.218D+00 0.365D+00-0.654D+00 0.129D+01-0.169D+01
 Coeff-Com:  0.185D+01
 Coeff:     -0.285D-05 0.636D-04-0.188D-02 0.160D-02 0.434D-02-0.308D-01
 Coeff:      0.760D-01-0.218D+00 0.365D+00-0.654D+00 0.129D+01-0.169D+01
 Coeff:      0.185D+01
 Gap=     0.481 Goal=   None    Shift=    0.000
 RMSDP=2.20D-06 MaxDP=9.24D-06 DE=-1.60D-09 OVMax= 0.00D+00

 Cycle  14  Pass 1  IDiag  1:
 E= -165.454494252885     Delta-E=       -0.000000000127 Rises=F Damp=F
 DIIS: error= 2.03D-07 at cycle  14 NSaved=  14.
 NSaved=14 IEnMin=14 EnMin= -165.454494252885     IErMin=14 ErrMin= 2.03D-07
 ErrMax= 2.03D-07  0.00D+00 EMaxC= 1.00D-01 BMatC= 5.99D-13 BMatP= 1.07D-11
 IDIUse=1 WtCom= 1.00D+00 WtEn= 0.00D+00
 Coeff-Com: -0.490D-05-0.260D-05 0.379D-03-0.298D-03-0.960D-03 0.619D-02
 Coeff-Com: -0.143D-01 0.411D-01-0.668D-01 0.126D+00-0.266D+00 0.384D+00
 Coeff-Com: -0.681D+00 0.147D+01
 Coeff:     -0.490D-05-0.260D-05 0.379D-03-0.298D-03-0.960D-03 0.619D-02
 Coeff:     -0.143D-01 0.411D-01-0.668D-01 0.126D+00-0.266D+00 0.384D+00
 Coeff:     -0.681D+00 0.147D+01
 Gap=     0.481 Goal=   None    Shift=    0.000
 RMSDP=4.08D-07 MaxDP=1.95D-06 DE=-1.27D-10 OVMax= 0.00D+00

 Cycle  15  Pass 1  IDiag  1:
 E= -165.454494252890     Delta-E=       -0.000000000004 Rises=F Damp=F
 DIIS: error= 2.44D-08 at cycle  15 NSaved=  15.
 NSaved=15 IEnMin=15 EnMin= -165.454494252890     IErMin=15 ErrMin= 2.44D-08
 ErrMax= 2.44D-08  0.00D+00 EMaxC= 1.00D-01 BMatC= 1.63D-14 BMatP= 5.99D-13
 IDIUse=1 WtCom= 1.00D+00 WtEn= 0.00D+00
 Coeff-Com: -0.234D-05 0.373D-05 0.471D-05-0.212D-05-0.405D-04-0.767D-04
 Coeff-Com:  0.769D-04-0.182D-02 0.318D-02-0.117D-01 0.353D-01-0.637D-01
 Coeff-Com:  0.179D+00-0.554D+00 0.141D+01
 Coeff:     -0.234D-05 0.373D-05 0.471D-05-0.212D-05-0.405D-04-0.767D-04
 Coeff:      0.769D-04-0.182D-02 0.318D-02-0.117D-01 0.353D-01-0.637D-01
 Coeff:      0.179D+00-0.554D+00 0.141D+01
 Gap=     0.481 Goal=   None    Shift=    0.000
 RMSDP=3.22D-08 MaxDP=1.34D-07 DE=-4.38D-12 OVMax= 0.00D+00

 Cycle  16  Pass 1  IDiag  1:
 E= -165.454494252889     Delta-E=        0.000000000000 Rises=F Damp=F
 DIIS: error= 7.23D-09 at cycle  16 NSaved=  16.
 NSaved=16 IEnMin=15 EnMin= -165.454494252890     IErMin=16 ErrMin= 7.23D-09
 ErrMax= 7.23D-09  0.00D+00 EMaxC= 1.00D-01 BMatC= 1.26D-15 BMatP= 1.63D-14
 IDIUse=1 WtCom= 1.00D+00 WtEn= 0.00D+00
 Large coefficients: NSaved= 16 BigCof=    0.00 CofMax=   10.00 Det=-7.56D-16
 Inversion failed.  Reducing to 15 matrices.
 Coeff-Com: -0.142D-06 0.752D-05-0.442D-05-0.201D-04 0.152D-03-0.290D-03
 Coeff-Com:  0.112D-02-0.172D-02 0.454D-02-0.119D-01 0.201D-01-0.564D-01
 Coeff-Com:  0.179D+00-0.575D+00 0.144D+01
 Coeff:     -0.142D-06 0.752D-05-0.442D-05-0.201D-04 0.152D-03-0.290D-03
 Coeff:      0.112D-02-0.172D-02 0.454D-02-0.119D-01 0.201D-01-0.564D-01
 Coeff:      0.179D+00-0.575D+00 0.144D+01
 Gap=     0.481 Goal=   None    Shift=    0.000
 RMSDP=5.49D-09 MaxDP=2.50D-08 DE= 4.55D-13 OVMax= 0.00D+00

 SCF Done:  E(RHF) =  -165.454494253     A.U. after   16 cycles
            NFock= 16  Conv=0.55D-08     -V/T= 2.0095
 KE= 1.638916042483D+02 PE=-5.018399215468D+02 EE= 1.164865652334D+02
 Leave Link  502 at Fri Apr 15 18:54:03 2022, MaxMem=   131072000 cpu:               0.0 elap:               0.2
 (Enter C:\G16W\l801.exe)
 Range of M.O.s used for correlation:     1    16
 NBasis=    16 NAE=    11 NBE=    11 NFC=     0 NFV=     0
 NROrb=     16 NOA=    11 NOB=    11 NVA=     5 NVB=     5
 Leave Link  801 at Fri Apr 15 18:54:03 2022, MaxMem=   131072000 cpu:               0.0 elap:               0.0
 (Enter C:\G16W\l1101.exe)
 Using compressed storage, NAtomX=     4.
 Will process      5 centers per pass.
 Leave Link 1101 at Fri Apr 15 18:54:03 2022, MaxMem=   131072000 cpu:               0.0 elap:               0.0
 (Enter C:\G16W\l1102.exe)
 Symmetrizing basis deriv contribution to polar:
 IMax=3 JMax=2 DiffMx= 0.00D+00
 Leave Link 1102 at Fri Apr 15 18:54:03 2022, MaxMem=   131072000 cpu:               0.0 elap:               0.0
 (Enter C:\G16W\l1110.exe)
 Forming Gx(P) for the SCF density, NAtomX=     4.
 Integral derivatives from FoFJK, PRISM(SPDF).
 Do as many integral derivatives as possible in FoFJK.
 G2DrvN: MDV=     131071592.
 G2DrvN: will do     5 centers at a time, making    1 passes.
 Calling FoFCou, ICntrl=  3107 FMM=F I1Cent=   0 AccDes= 0.00D+00.
 FoFJK:  IHMeth= 1 ICntrl=    3107 DoSepK=F KAlg= 0 I1Cent=           0 FoldK=F
 IRaf=         0 NMat=       1 IRICut=       1 DoRegI=T DoRafI=F ISym2E= 0 IDoP0=0 IntGTp=1.
 FoFCou: FMM=F IPFlag=           0 FMFlag=      100000 FMFlg1=           0
         NFxFlg=           0 DoJE=F BraDBF=F KetDBF=F FulRan=T
         wScrn=  0.000000 ICntrl=      3107 IOpCl=  0 I1Cent=           0 NGrid=           0
         NMat0=    1 NMatS0=      1 NMatT0=    0 NMatD0=    1 NMtDS0=    0 NMtDT0=    0
 Symmetry not used in FoFCou.
 End of G2Drv F.D. properties file   721 does not exist.
 End of G2Drv F.D. properties file   722 does not exist.
 End of G2Drv F.D. properties file   788 does not exist.
 Leave Link 1110 at Fri Apr 15 18:54:03 2022, MaxMem=   131072000 cpu:               0.0 elap:               0.1
 (Enter C:\G16W\l1002.exe)
 Minotr:  Closed shell wavefunction.
          IDoAtm=1111
          Direct CPHF calculation.
          Differentiating once with respect to electric field.
                with respect to dipole field.
          Differentiating once with respect to nuclear coordinates.
          Requested convergence is 1.0D-08 RMS, and 1.0D-07 maximum.
          Secondary convergence is 1.0D-12 RMS, and 1.0D-12 maximum.
          NewPWx=T KeepS1=F KeepF1=F KeepIn=T MapXYZ=F SortEE=F KeepMc=T.
 Keep R1 ints in memory in canonical form, NReq=814683.
 FoFCou: FMM=F IPFlag=           0 FMFlag=           0 FMFlg1=           0
         NFxFlg=           0 DoJE=F BraDBF=F KetDBF=F FulRan=T
         wScrn=  0.000000 ICntrl=       600 IOpCl=  0 I1Cent=           0 NGrid=           0
         NMat0=    1 NMatS0=    136 NMatT0=    0 NMatD0=    1 NMtDS0=    0 NMtDT0=    0
 Symmetry not used in FoFCou.
 Two-electron integral symmetry not used.
          MDV=     131072000 using IRadAn=       1.
          Solving linear equations simultaneously, MaxMat=       0.
          There are    15 degrees of freedom in the 1st order CPHF.  IDoFFX=6 NUNeed=     3.
     12 vectors produced by pass  0 Test12= 3.67D-16 6.67D-09 XBig12= 1.29D+01 2.46D+00.
 AX will form    12 AO Fock derivatives at one time.
     12 vectors produced by pass  1 Test12= 3.67D-16 6.67D-09 XBig12= 8.19D-01 4.30D-01.
     12 vectors produced by pass  2 Test12= 3.67D-16 6.67D-09 XBig12= 6.91D-03 4.07D-02.
     12 vectors produced by pass  3 Test12= 3.67D-16 6.67D-09 XBig12= 8.75D-06 8.84D-04.
      7 vectors produced by pass  4 Test12= 3.67D-16 6.67D-09 XBig12= 3.02D-09 3.07D-05.
 InvSVY:  IOpt=1 It=  1 EMax= 8.88D-16
 Solved reduced A of dimension    55 with    12 vectors.
 FullF1:  Do perturbations      1 to       3.
 Isotropic polarizability for W=    0.000000       11.38 Bohr**3.
 End of Minotr F.D. properties file   721 does not exist.
 End of Minotr F.D. properties file   722 does not exist.
 End of Minotr F.D. properties file   788 does not exist.
 Leave Link 1002 at Fri Apr 15 18:54:04 2022, MaxMem=   131072000 cpu:               1.0 elap:               0.0
 (Enter C:\G16W\l601.exe)
 Copying SCF densities to generalized density rwf, IOpCl= 0 IROHF=0.

 **********************************************************************

            Population analysis using the SCF density.

 **********************************************************************

 Orbital symmetries:
       Occupied  (A) (A) (A) (A) (A) (A) (A) (A) (A) (A) (A)
       Virtual   (A) (A) (A) (A) (A)
 The electronic state is 1-A.
 Alpha  occ. eigenvalues --  -20.39203 -15.32216 -11.20045  -1.40534  -1.09837
 Alpha  occ. eigenvalues --   -0.69676  -0.58977  -0.56205  -0.52351  -0.38137
 Alpha  occ. eigenvalues --   -0.31577
 Alpha virt. eigenvalues --    0.16535   0.27994   0.59839   0.74836   0.96681
          Condensed to atoms (all electrons):
               1          2          3          4
     1  H    0.584425   0.299914  -0.033431   0.001073
     2  N    0.299914   6.667604   0.361988  -0.020041
     3  C   -0.033431   0.361988   4.870883   0.473677
     4  O    0.001073  -0.020041   0.473677   7.710730
 Mulliken charges:
               1
     1  H    0.148019
     2  N   -0.309465
     3  C    0.326884
     4  O   -0.165438
 Sum of Mulliken charges =   0.00000
 Mulliken charges with hydrogens summed into heavy atoms:
               1
     2  N   -0.161446
     3  C    0.326884
     4  O   -0.165438
 APT charges:
               1
     1  H    0.184058
     2  N   -0.425227
     3  C    0.564510
     4  O   -0.323340
 Sum of APT charges =   0.00000
 APT charges with hydrogens summed into heavy atoms:
               1
     2  N   -0.241170
     3  C    0.564510
     4  O   -0.323340
 Electronic spatial extent (au):  <R**2>=            127.8611
 Charge=              0.0000 electrons
 Dipole moment (field-independent basis, Debye):
    X=             -0.2786    Y=              2.0415    Z=              0.0480  Tot=              2.0610
 Quadrupole moment (field-independent basis, Debye-Ang):
   XX=            -16.2202   YY=            -14.4200   ZZ=            -14.9594
   XY=             -1.5493   XZ=             -0.1641   YZ=              0.0240
 Traceless Quadrupole moment (field-independent basis, Debye-Ang):
   XX=             -1.0204   YY=              0.7799   ZZ=              0.2405
   XY=             -1.5493   XZ=             -0.1641   YZ=              0.0240
 Octapole moment (field-independent basis, Debye-Ang**2):
  XXX=             -1.2659  YYY=             -0.0683  ZZZ=              0.0497  XYY=              1.6952
  XXY=              2.9786  XXZ=              0.2645  XZZ=              2.0923  YZZ=             -0.0022
  YYZ=              0.0443  XYZ=             -0.0166
 Hexadecapole moment (field-independent basis, Debye-Ang**3):
 XXXX=           -100.1442 YYYY=            -15.5148 ZZZZ=             -9.5950 XXXY=             -4.8908
 XXXZ=             -0.4616 YYYX=             -1.4080 YYYZ=              0.0170 ZZZX=             -0.0141
 ZZZY=              0.0026 XXYY=            -19.0055 XXZZ=            -19.6746 YYZZ=             -4.2267
 XXYZ=              0.0671 YYXZ=             -0.0529 ZZXY=             -0.3481
 N-N= 5.600725781226D+01 E-N=-5.018399215388D+02  KE= 1.638916042483D+02
  Exact polarizability:  23.156  -0.524   7.571  -0.326  -0.016   3.427
 Approx polarizability:  32.515   0.749   9.286  -0.131  -0.030   2.064
 No NMR shielding tensors so no spin-rotation constants.
 Leave Link  601 at Fri Apr 15 18:54:04 2022, MaxMem=   131072000 cpu:               0.0 elap:               0.0
 (Enter C:\G16W\l701.exe)
 SCFChk:  SCF convergence  5.49D-09 required  1.00D-08
 ... and contract with generalized density number  0.
 Compute integral second derivatives.
 Entering OneElI...
 Calculate overlap and kinetic energy integrals
    NBasis =  16  MinDer = 2  MaxDer = 2
 Requested accuracy = 0.1000D-12
 PrmmSu-InSpLW:  IPartL=    0 NPrtUS=    1 NPrtUL=    1 DoSpLW=F IThBeg=    0 IThEnd=    0 NThAct=    1.
 PrsmSu:  NPrtUS=   1 ThrOK=F IAlg=1 NPAlg=1 LenDen=           0 ISkipM=0 DoSpLW=F IThBeg=    0 IThEnd=    0.
 Prism:   IPart=     0 DynPar=F LinDyn=F Incr=           1.
 PRISM was handed   131065534 working-precision words and    28 shell-pairs
 IPart=  0 NShTot=          28 NBatch=           8 AvBLen=         3.5
 PrSmSu:  NxtVal=              2.
 Entering OneElI...
 Calculate potential energy integrals
    NBasis =  16  MinDer = 2  MaxDer = 2
 Requested accuracy = 0.1000D-12
 PrmmSu-InSpLW:  IPartL=    0 NPrtUS=    1 NPrtUL=    1 DoSpLW=F IThBeg=    0 IThEnd=    0 NThAct=    1.
 PrsmSu:  NPrtUS=   1 ThrOK=F IAlg=1 NPAlg=1 LenDen=           0 ISkipM=0 DoSpLW=F IThBeg=    0 IThEnd=    0.
 Prism:   IPart=     0 DynPar=F LinDyn=F Incr=           1.
 PRISM was handed   131065828 working-precision words and    27 shell-pairs
 IPart=  0 NShTot=         108 NBatch=          27 AvBLen=         4.0
 PrSmSu:  NxtVal=              2.
 Polarizability after L701:
                1             2             3 
      1  0.231557D+02
      2 -0.524342D+00  0.757121D+01
      3 -0.326364D+00 -0.157218D-01  0.342724D+01
 Dipole Derivatives after L701:
                 1             2             3             4             5 
      1   0.277431D+00  0.199780D+00 -0.290104D-02 -0.792933D+00 -0.478934D+00
      2   0.971989D-01 -0.205535D-01 -0.174560D-01  0.112557D+00  0.440541D-01
      3   0.773447D-02 -0.118772D-01  0.295296D+00 -0.201998D-01  0.591576D-02
                 6             7             8             9            10 
      1  -0.288547D-02  0.130044D+01  0.689432D-01  0.280221D-01 -0.784942D+00
      2   0.182446D-01 -0.153951D+00  0.321998D-01  0.435992D-02 -0.558049D-01
      3  -0.526803D+00  0.959705D-02  0.944317D-02  0.360884D+00  0.286827D-02
                11            12 
      1   0.210211D+00 -0.222356D-01
      2  -0.557004D-01 -0.514850D-02
      3  -0.348170D-02 -0.129377D+00
 Hessian after L701:
                1             2             3             4             5 
      1  0.187531D+01
      2  0.834920D+00  0.152207D+01
      3  0.504472D-01 -0.638563D-01  0.246788D+01
      4 -0.187460D+01 -0.706087D+00 -0.455468D-01 -0.363365D-01
      5 -0.915118D+00 -0.154530D+01  0.664942D-01 -0.273150D+01  0.588230D+01
      6 -0.561453D-01  0.612559D-01 -0.246464D+01  0.104971D+00 -0.835318D-01
      7 -0.124601D+00 -0.349225D-01  0.113825D-02  0.107111D+01  0.337588D+01
      8  0.143569D+00  0.306592D-01 -0.448288D-02  0.350116D+01 -0.380662D+01
      9  0.795953D-02  0.252904D-02  0.285161D-01 -0.697388D-01  0.151907D-01
     10  0.123885D+00 -0.939107D-01 -0.603865D-02  0.839824D+00  0.270743D+00
     11 -0.633716D-01 -0.742951D-02  0.184500D-02 -0.635657D-01 -0.530374D+00
     12 -0.226139D-02  0.713395D-04 -0.317598D-01  0.103145D-01  0.184690D-02
                6             7             8             9            10 
      6  0.921118D+01
      7 -0.556005D-01 -0.161865D+01
      8  0.245635D-01  0.136827D+01  0.126153D+02
      9 -0.629965D+01 -0.117492D+00  0.114609D+00  0.163587D+02
     10  0.677479D-02  0.672143D+00 -0.501300D+01  0.179272D+00 -0.163585D+01
     11 -0.228760D-02 -0.470923D+01 -0.883936D+01 -0.132328D+00  0.483617D+01
     12 -0.446890D+00  0.171955D+00 -0.134689D+00 -0.100875D+02 -0.180008D+00
               11            12 
     11  0.937716D+01
     12  0.132771D+00  0.105662D+02
 Leave Link  701 at Fri Apr 15 18:54:04 2022, MaxMem=   131072000 cpu:               0.0 elap:               0.1
 (Enter C:\G16W\l702.exe)
 L702 exits ... SP integral derivatives will be done elsewhere.
 Leave Link  702 at Fri Apr 15 18:54:04 2022, MaxMem=   131072000 cpu:               0.0 elap:               0.0
 (Enter C:\G16W\l703.exe)
 Integral derivatives from FoFJK, PRISM(SPDF).
 Compute integral second derivatives, UseDBF=F ICtDFT=           0.
 ICntrl=    100127.
 Calling FoFJK, ICntrl=    100127 FMM=F ISym2X=0 I1Cent= 0 IOpClX= 0 NMat=1 NMatS=1 NMatT=0.
 FoFJK:  IHMeth= 1 ICntrl=  100127 DoSepK=F KAlg= 0 I1Cent=           0 FoldK=F
 IRaf=         0 NMat=       1 IRICut=       1 DoRegI=T DoRafI=F ISym2E= 0 IDoP0=0 IntGTp=1.
 FoFCou: FMM=F IPFlag=           0 FMFlag=      100000 FMFlg1=         800
         NFxFlg=           0 DoJE=F BraDBF=F KetDBF=F FulRan=T
         wScrn=  0.000000 ICntrl=    100127 IOpCl=  0 I1Cent=           0 NGrid=           0
         NMat0=    1 NMatS0=      1 NMatT0=    0 NMatD0=    1 NMtDS0=    0 NMtDT0=    0
 Symmetry not used in FoFCou.
 FoFCou:  KetSym=F NOpSet=  1 NOpAb=1 NOp=  1.
 FoFCou:  CnvScl= 1.00D+00 Thresh= 1.00D-12 IAcrcy=      10.
 PrismS was handed   131066192 working-precision words and    27 shell-pairs
 FoFCou: LinMIO=F DoNuc=F BraDBF=F KetDBF=F HaveP=T PDBF=F HaveZ=T HaveW=F
         NIJTC =       3 NIJTAt=       0 NIJTCD=       0 NIJTT =       3
         IJTBeg=       1 IJTEnd=       3 KLTBeg=       1 KLTEnd=       3
         IPTBeg=       1 IPTEnd=       3 IPTBCv=       1 IPTECv=       3
         IZTBeg=       1 IZTEnd=       3 IZTBCv=       1 IZTECv=       3
         IWTBeg=       4 IWTEnd=       3 IWTBCv=       4 IWTECv=       3
         INTBeg=       1 INTEnd=       0 IFTBCv=       1 IFTECv=       3
 NCel replicated for PrismC:     1
 CoulSu-InSpLW:  IPartL=    0 NPrtUS=    1 NPrtUL=    1 DoSpLW=F IThBeg=    0 IThEnd=    0 NThAct=    1.
 CoulSu:  IncDef=  1024 NBBP=            378 NTPThr=   100 NPartT=    1 Incr=           3 LDynOK=F GPUOK=T.
 CoulSu:  NPrtUS=   1 ThrOK=F IAlg=1 NPAlg=1 LenDen=           0 LWGrdD=           0 DoCopy=F ISkipM=0
          DoSpLW=F IThBeg=    0 IThEnd=    0.
 Enter PrismC:  IPart=  0 JobTyp=22 DoJE=F Cont=F.
 PrismC:  IPart=     0 DynPar=F LinDyn=F Incr=           3 UseFst=F UseS4=T ISplat=2.
 PrismC was handed   131066103 working-precision words and    27 shell-pairs
 IPart=  0 NShTot=         376 NShNF=         376 NShFF=           0 MinMC=      10
           NShCPU=         376 NBCPU=          43 AvBCPU=         8.7
           NShGPU=           0 NBGPU=           0 AvBGPU=         0.0
 CoulSu:  NxtVal=              4 LenVP=      131066104 MinMC=      10.
 Polarizability after L703:
                1             2             3 
      1  0.231557D+02
      2 -0.524342D+00  0.757121D+01
      3 -0.326364D+00 -0.157218D-01  0.342724D+01
 Dipole Derivatives after L703:
                 1             2             3             4             5 
      1   0.277431D+00  0.199780D+00 -0.290104D-02 -0.792933D+00 -0.478934D+00
      2   0.971989D-01 -0.205535D-01 -0.174560D-01  0.112557D+00  0.440541D-01
      3   0.773447D-02 -0.118772D-01  0.295296D+00 -0.201998D-01  0.591576D-02
                 6             7             8             9            10 
      1  -0.288547D-02  0.130044D+01  0.689432D-01  0.280221D-01 -0.784942D+00
      2   0.182446D-01 -0.153951D+00  0.321998D-01  0.435992D-02 -0.558049D-01
      3  -0.526803D+00  0.959705D-02  0.944317D-02  0.360884D+00  0.286827D-02
                11            12 
      1   0.210211D+00 -0.222356D-01
      2  -0.557004D-01 -0.514850D-02
      3  -0.348170D-02 -0.129377D+00
 Hessian after L703:
                1             2             3             4             5 
      1  0.287829D+00
      2 -0.230520D+00  0.297494D+00
      3 -0.163491D-01  0.165295D-01  0.658107D-02
      4 -0.245447D+00  0.277424D+00  0.184419D-01  0.521412D+00
      5  0.193560D+00 -0.301884D+00 -0.148389D-01 -0.251451D+00  0.367856D+00
      6  0.143078D-01 -0.177399D-01 -0.751288D-02 -0.175165D-01  0.176748D-01
      7 -0.408760D-01 -0.393474D-01 -0.134288D-02 -0.925471D-01  0.788885D-01
      8  0.448844D-01  0.493308D-02 -0.168080D-02 -0.264282D-01 -0.959990D-01
      9  0.209254D-02  0.200942D-02 -0.289696D-02 -0.151587D-02 -0.437624D-02
     10 -0.150553D-02 -0.755636D-02 -0.749904D-03 -0.183417D+00 -0.209977D-01
     11 -0.792470D-02 -0.543725D-03 -0.976181D-05  0.455495D-03  0.300262D-01
     12 -0.512879D-04 -0.799044D-03  0.382878D-02  0.590488D-03  0.154036D-02
                6             7             8             9            10 
      6  0.559388D-01
      7  0.261926D-02  0.879808D+00
      8 -0.236216D-03 -0.343056D+00  0.284642D+00
      9 -0.688387D-01  0.115147D-01 -0.232275D-02  0.137824D+00
     10  0.589400D-03 -0.746385D+00  0.324600D+00 -0.120913D-01  0.931308D+00
     11  0.301277D-03  0.303515D+00 -0.193576D+00  0.468957D-02 -0.296046D+00
     12  0.204128D-01 -0.127910D-01  0.423976D-02 -0.660888D-01  0.122518D-01
               11            12 
     11  0.164094D+00
     12 -0.498108D-02  0.418472D-01
 Leave Link  703 at Fri Apr 15 18:54:04 2022, MaxMem=   131072000 cpu:               0.0 elap:               0.1
 (Enter C:\G16W\l716.exe)
 FrcOut:
 IF    =        41 IFX   =        53 IFXYZ =        65
 IFFX  =        77 IFFFX =       155 IFLen =        12
 IFFLen=        78 IFFFLn=         0 IEDerv=       155
 LEDerv=       629 IFroze=       954 ICStrt=      1551
 Dipole        =-1.09628643D-01 8.03204608D-01 1.88822520D-02
 DipoleDeriv   = 2.77430737D-01 9.71989003D-02 7.73446934D-03
                 1.99780112D-01-2.05535256D-02-1.18772271D-02
                -2.90104156D-03-1.74559776D-02 2.95295595D-01
                -7.92933228D-01 1.12556978D-01-2.01997943D-02
                -4.78934498D-01 4.40540923D-02 5.91575559D-03
                -2.88546867D-03 1.82445571D-02-5.26803063D-01
                 1.30044497D+00-1.53950942D-01 9.59705341D-03
                 6.89431742D-02 3.21998161D-02 9.44317411D-03
                 2.80220648D-02 4.35991836D-03 3.60884430D-01
                -7.84942480D-01-5.58049365D-02 2.86827155D-03
                 2.10211212D-01-5.57003828D-02-3.48170259D-03
                -2.22355545D-02-5.14849777D-03-1.29376962D-01
 Polarizability= 2.31556836D+01-5.24341563D-01 7.57121021D+00
                -3.26364416D-01-1.57217538D-02 3.42724213D+00
 HyperPolar    = 1.06633312D+01 2.70311595D+01 3.74714542D+00
                 7.52310285D+00-2.00861030D+00-1.51771755D+00
                -3.03310572D-01 1.66624763D+01 5.36767489D+00
                 1.36677778D-01
 Quadrupole    =-7.58606660D-01 5.79833195D-01 1.78773465D-01
                -1.15188609D+00-1.22008096D-01 1.78246380D-02
 VibFq2-Diag1:  N=     12 IV=           5 MDV=   131069605 NE2=    10922466
 Full mass-weighted force constant matrix:
 Low frequencies ---   -0.0001    0.0004    0.0010  165.8474  214.7333  412.3181
 Low frequencies ---  596.8282  649.2411  827.3762
 OrtVCM:  Ph=1 IPass= 1 DotMx1= 0.00D+00
 OrtVCM:  IS=    1 I=    1 IndO=    1 Dot= 1.00D+00 DotN= 1.00D+00 ElMax1= 6.10D-01 ElMax1N= 6.10D-01
 OrtVCM:  Ph=2 NNew=    0 IAdd=    2 IPass= 1 DotMx2= 0.00D+00
 OrtVCM:  IS=    1 I=    2 IndO=    2 Dot= 1.00D+00 DotN= 1.00D+00 ElMax1= 6.10D-01 ElMax1N= 6.10D-01
 OrtVCM:  Ph=2 NNew=    0 IAdd=    3 IPass= 1 DotMx2= 0.00D+00
 OrtVCM:  IS=    1 I=    3 IndO=    3 Dot= 1.00D+00 DotN= 1.00D+00 ElMax1= 6.10D-01 ElMax1N= 6.10D-01
 OrtVCM:  Ph=2 NNew=    0 IAdd=    4 IPass= 1 DotMx2= 2.17D-19
 OrtVCM:  IS=    1 I=    4 IndO=    4 Dot= 1.00D+00 DotN= 1.00D+00 ElMax1= 7.46D-01 ElMax1N= 7.46D-01
 OrtVCM:  Ph=2 NNew=    0 IAdd=    5 IPass= 1 DotMx2= 1.11D-15
 OrtVCM:  IS=    1 I=    5 IndO=    5 Dot= 1.00D+00 DotN= 1.00D+00 ElMax1= 6.80D-01 ElMax1N= 6.80D-01
 OrtVCM:  Ph=2 NNew=    0 IAdd=    6 IPass= 1 DotMx2= 5.56D-16
 OrtVCM:  IS=    1 I=    6 IndO=    6 Dot= 1.00D+00 DotN= 1.00D+00 ElMax1= 6.63D-01 ElMax1N= 6.63D-01
 OrtVCM:  Ph=1 IPass= 1 DotMx1= 6.76D-01
 OrtVCM:  Ph=1 IPass= 2 DotMx1= 1.94D-16
 OrtVCM:  IS=    1 I=    1 IndO=    7 Dot= 9.70D-01 DotN= 9.70D-01 ElMax1= 9.70D-01 ElMax1N= 9.70D-01
 OrtVCM:  Ph=2 NNew=    0 IAdd=    2 IPass= 1 DotMx2= 2.26D-02
 OrtVCM:  Ph=2 NNew=    0 IAdd=    2 IPass= 2 DotMx2= 8.86D-18
 OrtVCM:  IS=    1 I=    2 IndO=    8 Dot= 8.99D-01 DotN= 8.99D-01 ElMax1= 8.99D-01 ElMax1N= 8.99D-01
 OrtVCM:  Ph=2 NNew=    0 IAdd=    3 IPass= 1 DotMx2= 1.18D-02
 OrtVCM:  Ph=2 NNew=    0 IAdd=    3 IPass= 2 DotMx2= 6.51D-19
 OrtVCM:  IS=    1 I=    3 IndO=    9 Dot= 7.58D-01 DotN= 7.58D-01 ElMax1= 7.58D-01 ElMax1N= 7.58D-01
 OrtVCM:  Ph=2 NNew=    0 IAdd=    4 IPass= 1 DotMx2= 7.88D-02
 OrtVCM:  Ph=2 NNew=    0 IAdd=    4 IPass= 2 DotMx2= 2.88D-17
 OrtVCM:  IS=    1 I=    4 IndO=   10 Dot= 6.53D-01 DotN= 6.53D-01 ElMax1= 6.53D-01 ElMax1N= 6.53D-01
 OrtVCM:  Ph=2 NNew=    0 IAdd=    5 IPass= 1 DotMx2= 2.84D-01
 OrtVCM:  Ph=2 NNew=    0 IAdd=    5 IPass= 2 DotMx2= 5.75D-17
 OrtVCM:  IS=    1 I=    5 IndO=   11 Dot= 1.51D-01 DotN= 1.51D-01 ElMax1= 3.09D-01 ElMax1N= 3.09D-01
 OrtVCM:  Ph=2 NNew=    0 IAdd=    6 IPass= 1 DotMx2= 1.27D-01
 OrtVCM:  Ph=2 NNew=    0 IAdd=    6 IPass= 2 DotMx2= 4.31D-17
 OrtVCM:  IS=    1 I=    6 IndO=    0 Dot= 1.32D-34 DotN= 1.32D-34 ElMax1= 8.16D-18 ElMax1N= 8.16D-18
 SchOr2:  IPass= 1 Test2A= 1.00D-01 IOff=     0 NDo=     6 NNew=     5
 OrtVCM:  Ph=1 IPass= 1 DotMx1= 5.28D-01
 OrtVCM:  Ph=1 IPass= 2 DotMx1= 2.34D-16
 OrtVCM:  IS=    1 I=    1 IndO=   12 Dot= 4.90D-01 DotN= 4.90D-01 ElMax1= 4.90D-01 ElMax1N= 4.90D-01
 SchOr2:  IPass= 1 Test2A= 1.00D-01 IOff=     6 NDo=     1 NNew=     1
 VibFq2-Diag2:  N=      6 IV=           5 MDV=   131069605 NE2=    21844933
 Dipole derivative wrt mode   1:  5.48346D-01 -4.70991D-01  6.98834D+00
 Vibrational polarizability contributions from mode   1       0.0385605       0.0284484       6.2629664
 Dipole derivative wrt mode   2:  2.83719D+00 -1.42697D-01 -2.58865D-01
 Vibrational polarizability contributions from mode   2       0.6081041       0.0015383       0.0050623
 Dipole derivative wrt mode   3: -1.03062D+01  1.50783D+00  1.21972D-01
 Vibrational polarizability contributions from mode   3       4.1932070       0.0897544       0.0005873
 Dipole derivative wrt mode   4:  1.19565D+01  1.88420D+00 -3.69208D-02
 Vibrational polarizability contributions from mode   4       2.1085160       0.0523627       0.0000201
 Dipole derivative wrt mode   5:  9.26129D+00 -1.21065D+00  5.46152D-02
 Vibrational polarizability contributions from mode   5       0.6071217       0.0103746       0.0000211
 Dipole derivative wrt mode   6: -2.00297D+00 -2.37445D+00 -1.01097D-02
 Vibrational polarizability contributions from mode   6       0.0073367       0.0103104       0.0000002
 Diagonal vibrational polarizability:
        7.5628460       0.1927888       6.2686574
 NorSel:  MapVib=      1      2      3      4      5      6
 Harmonic frequencies (cm**-1), IR intensities (KM/Mole), Raman scattering
 activities (A**4/AMU), depolarization ratios for plane and unpolarized
 incident light, reduced masses (AMU), force constants (mDyne/A),
 and normal coordinates:
                      1                      2                      3
                      A                      A                      A
 Frequencies --    458.0894               596.8509               825.6422
 Red. masses --      1.3008                 7.7713                 8.6458
 Frc consts  --      0.1608                 1.6311                 3.4725
 IR Inten    --     49.3593                 8.1370               108.5062
  Atom  AN      X      Y      Z        X      Y      Z        X      Y      Z
     1   1     0.04  -0.02   0.99    -0.34  -0.55  -0.07    -0.14  -0.61   0.09
     2   7    -0.01   0.00  -0.04     0.05  -0.22   0.01     0.61   0.17   0.00
     3   6     0.01   0.01  -0.13     0.20   0.63  -0.01    -0.34  -0.06  -0.02
     4   8     0.00   0.00   0.07    -0.17  -0.24   0.00    -0.27  -0.07   0.01
                      4                      5                      6
                      A                      A                      A
 Frequencies --   1350.7723              1949.8451              3836.1025
 Red. masses --      1.2414                 9.1050                 1.0748
 Frc consts  --      1.3345                20.3954                 9.3183
 IR Inten    --    146.5094                87.2401                 9.6500
  Atom  AN      X      Y      Z        X      Y      Z        X      Y      Z
     1   1     0.77   0.62  -0.01    -0.43  -0.39   0.00    -0.69   0.72   0.04
     2   7     0.04  -0.08   0.00     0.01   0.06   0.00     0.05  -0.05   0.00
     3   6     0.01   0.02   0.01     0.60  -0.28   0.01     0.00   0.00   0.00
     4   8    -0.09   0.02   0.00    -0.43   0.18  -0.01     0.00   0.00   0.00

 -------------------
 - Thermochemistry -
 -------------------
 Temperature   298.150 Kelvin.  Pressure   1.00000 Atm.
 Atom     1 has atomic number  1 and mass   1.00783
 Atom     2 has atomic number  7 and mass  14.00307
 Atom     3 has atomic number  6 and mass  12.00000
 Atom     4 has atomic number  8 and mass  15.99491
 Molecular mass:    43.00581 amu.
 Principal axes and moments of inertia in atomic units:
                           1         2         3
     Eigenvalues --     9.50858 164.55138 174.03050
           X            0.99971  -0.02404  -0.00209
           Y            0.02406   0.99966   0.01014
           Z            0.00185  -0.01019   0.99995
 This molecule is an asymmetric top.
 Rotational symmetry number  1.
 Rotational temperatures (Kelvin)      9.10903     0.52636     0.49769
 Rotational constants (GHZ):         189.80129    10.96765    10.37026
 Zero-point vibrational energy      53935.4 (Joules/Mol)
                                   12.89088 (Kcal/Mol)
 Warning -- explicit consideration of   2 degrees of freedom as
           vibrations may cause significant error
 Vibrational temperatures:    659.09   858.74  1187.92  1943.46  2805.39
          (Kelvin)           5519.30
 
 Zero-point correction=                           0.020543 (Hartree/Particle)
 Thermal correction to Energy=                    0.023875
 Thermal correction to Enthalpy=                  0.024820
 Thermal correction to Gibbs Free Energy=        -0.003155
 Sum of electronic and zero-point Energies=           -165.433951
 Sum of electronic and thermal Energies=              -165.430619
 Sum of electronic and thermal Enthalpies=            -165.429675
 Sum of electronic and thermal Free Energies=         -165.457650
 
                     E (Thermal)             CV                S
                      KCal/Mol        Cal/Mol-Kelvin    Cal/Mol-Kelvin
 Total                   14.982              9.092             58.878
 Electronic               0.000              0.000              0.000
 Translational            0.889              2.981             37.203
 Rotational               0.889              2.981             20.237
 Vibrational             13.205              3.130              1.438
 Vibration     1          0.816              1.343              0.772
 Vibration     2          0.955              1.038              0.455
                       Q            Log10(Q)             Ln(Q)
 Total Bot       0.282735D+02          1.451380          3.341926
 Total V=0       0.795173D+11         10.900462         25.099241
 Vib (Bot)       0.431786D-09         -9.364731        -21.563091
 Vib (Bot)    1  0.371884D+00         -0.429592         -0.989172
 Vib (Bot)    2  0.250989D+00         -0.600346         -1.382347
 Vib (V=0)       0.121437D+01          0.084350          0.194224
 Vib (V=0)    1  0.112314D+01          0.050432          0.116124
 Vib (V=0)    2  0.105946D+01          0.025085          0.057759
 Electronic      0.100000D+01          0.000000          0.000000
 Translational   0.110852D+08          7.044745         16.221124
 Rotational      0.590700D+04          3.771367          8.683893
 Write normal modes, IRwNMS=   765 IRotNM=-1 NVibU=     6.
 
                                                                  T1
                                                             IR Spectrum
 
     3                                                              1                   1                                            
     8                                                              9                   3                8       5   4               
     3                                                              5                   5                2       9   5               
     6                                                              0                   1                6       7   8               
 
     X                                                              X                   X                X       X   X               
                                                                    X                   X                X           X               
                                                                    X                   X                X           X               
                                                                    X                   X                X           X               
                                                                    X                   X                X           X               
                                                                    X                   X                X           X               
                                                                    X                   X                X           X               
                                                                    X                   X                X                           
                                                                    X                   X                X                           
                                                                    X                   X                X                           
                                                                    X                   X                X                           
                                                                    X                   X                X                           
                                                                                        X                X                           
                                                                                        X                X                           
                                                                                        X                X                           
                                                                                        X                                            
                                                                                        X                                            
                                                                                        X                                            
                                                                                        X                                            
                                                                                        X                                            
 
 Forces in standard orientation:
 -------------------------------------------------------------------
 Center     Atomic                   Forces (Hartrees/Bohr)
 Number     Number              X              Y              Z
 -------------------------------------------------------------------
      1        1           0.003084349    0.005946029    0.000626503
      2        7          -0.064129769   -0.079915084    0.000893804
      3        6           0.036386345    0.130489907   -0.003715446
      4        8           0.024659074   -0.056520852    0.002195140
 -------------------------------------------------------------------
 Cartesian Forces:  Max     0.130489907 RMS     0.052215889
 ***** Axes restored to original set *****
 Rotating derivatives, DoTrsp=F IDiff=-2 LEDeriv=    628 LFDPrp=       0 LDFDPr=       0.
 -------------------------------------------------------------------
 Center     Atomic                   Forces (Hartrees/Bohr)
 Number     Number              X              Y              Z
 -------------------------------------------------------------------
      1        1          -0.006261284   -0.000466907    0.002416463
      2        7           0.101020938   -0.002466282   -0.016986299
      3        6          -0.113886269    0.007975056    0.073018509
      4        8           0.019126615   -0.005041866   -0.058448673
 -------------------------------------------------------------------
 Cartesian Forces:  Max     0.113886269 RMS     0.052215889
 From PutF, contents of force:
   1   -0.2416463274D-02
   2   -0.8625609526D-01
   3   -0.4423342521D-01
   4    0.1244958063D-01
   5    0.9782983860D-01
   6    0.8871306493D-03
 -----------------------------------------------------------------------------------------------
                       Internal Coordinate Forces (Hartree/Bohr or radian)
  Cent   Atom   N1       Length/X         N2         Alpha/Y        N3         Beta/Z          J
 -----------------------------------------------------------------------------------------------
      1  H 
      2  N        1  -0.002416(     1)
      3  C        2  -0.086256(     2)      1   0.012450(     4)
      4  O        3  -0.044233(     3)      2   0.097830(     5)      1   0.000887(     6)     0
 -----------------------------------------------------------------------------------------------
 Internal  Forces:  Max     0.097829839 RMS     0.056463861
 Force constants in Cartesian coordinates: 
                1             2             3             4             5 
      1  0.631238D-01
      2 -0.660505D-03  0.554527D-02
      3  0.219087D-01  0.434391D-03  0.523235D+00
      4 -0.364659D-01  0.224171D-02 -0.412891D-01  0.203801D+00
      5  0.109313D-02 -0.648335D-02 -0.170591D-03  0.236268D-02  0.549419D-01
      6  0.427184D-01 -0.243874D-03 -0.511894D+00  0.105335D+00  0.340231D-02
      7 -0.178813D-01 -0.112441D-02  0.191154D-01 -0.680379D-01 -0.694538D-03
      8  0.102327D-04 -0.290791D-02 -0.957308D-03 -0.167884D-02 -0.687377D-01
      9 -0.652519D-01  0.172865D-03 -0.180507D-01  0.514643D-01 -0.870582D-03
     10 -0.877660D-02 -0.456790D-03  0.265036D-03 -0.992975D-01 -0.276127D-02
     11 -0.442855D-03  0.384598D-02  0.693508D-03 -0.292554D-02  0.202791D-01
     12  0.624883D-03 -0.363382D-03  0.671014D-02 -0.115510D+00 -0.236114D-02
                6             7             8             9            10 
      6  0.686464D+00
      7 -0.540038D-01  0.276247D+00
      8  0.294927D-03  0.214302D-01  0.139939D+00
      9 -0.120609D+00  0.334929D+00  0.412810D-01  0.886089D+00
     10 -0.940495D-01 -0.190328D+00 -0.197616D-01 -0.321141D+00  0.298402D+00
     11 -0.345336D-02 -0.196112D-01 -0.682931D-01 -0.405833D-01  0.229796D-01
     12 -0.539601D-01 -0.300040D+00 -0.406186D-01 -0.747429D+00  0.414925D+00
               11            12 
     11  0.441680D-01
     12  0.433431D-01  0.794679D+00
 FCInt: Cartesian first derivatives: 
                 1             2             3             4 
      1  -0.626128D-02  0.101021D+00 -0.113886D+00  0.191266D-01
      2  -0.466907D-03 -0.246628D-02  0.797506D-02 -0.504187D-02
      3   0.241646D-02 -0.169863D-01  0.730185D-01 -0.584487D-01
 FCInt: Cartesian force constants: 
                1             2             3             4             5 
      1  0.631238D-01
      2 -0.660505D-03  0.554527D-02
      3  0.219087D-01  0.434391D-03  0.523235D+00
      4 -0.364659D-01  0.224171D-02 -0.412891D-01  0.203801D+00
      5  0.109313D-02 -0.648335D-02 -0.170591D-03  0.236268D-02  0.549419D-01
      6  0.427184D-01 -0.243874D-03 -0.511894D+00  0.105335D+00  0.340231D-02
      7 -0.178813D-01 -0.112441D-02  0.191154D-01 -0.680379D-01 -0.694538D-03
      8  0.102327D-04 -0.290791D-02 -0.957308D-03 -0.167884D-02 -0.687377D-01
      9 -0.652519D-01  0.172865D-03 -0.180507D-01  0.514643D-01 -0.870582D-03
     10 -0.877660D-02 -0.456790D-03  0.265036D-03 -0.992975D-01 -0.276127D-02
     11 -0.442855D-03  0.384598D-02  0.693508D-03 -0.292554D-02  0.202791D-01
     12  0.624883D-03 -0.363382D-03  0.671014D-02 -0.115510D+00 -0.236114D-02
                6             7             8             9            10 
      6  0.686464D+00
      7 -0.540038D-01  0.276247D+00
      8  0.294927D-03  0.214302D-01  0.139939D+00
      9 -0.120609D+00  0.334929D+00  0.412810D-01  0.886089D+00
     10 -0.940495D-01 -0.190328D+00 -0.197616D-01 -0.321141D+00  0.298402D+00
     11 -0.345336D-02 -0.196112D-01 -0.682931D-01 -0.405833D-01  0.229796D-01
     12 -0.539601D-01 -0.300040D+00 -0.406186D-01 -0.747429D+00  0.414925D+00
               11            12 
     11  0.441680D-01
     12  0.433431D-01  0.794679D+00
 Internal force constants: 
                1             2             3             4             5 
      1  0.523235D+00
      2 -0.151771D-01  0.265771D+00
      3 -0.616776D-02  0.168732D+00  0.102904D+01
      4  0.373006D-01  0.885242D-01  0.661669D-02  0.244756D+00
      5  0.622111D-02  0.143560D+00  0.872962D-01  0.367589D-01  0.243660D+00
      6  0.379185D-03  0.297755D-02  0.611890D-03 -0.222169D-02  0.191560D-02
                6 
      6  0.121251D-01
 Frcnst in PutFF: 
                1             2             3             4             5 
      1  0.523235D+00
      2 -0.151771D-01  0.265771D+00
      3 -0.616776D-02  0.168732D+00  0.102904D+01
      4  0.373006D-01  0.885242D-01  0.661669D-02  0.244756D+00
      5  0.622111D-02  0.143560D+00  0.872962D-01  0.367589D-01  0.243660D+00
      6  0.379185D-03  0.297755D-02  0.611890D-03 -0.222169D-02  0.191560D-02
                6 
      6  0.121251D-01
 Force constants in internal coordinates: 
                1             2             3             4             5 
      1  0.523235D+00
      2 -0.151771D-01  0.265771D+00
      3 -0.616776D-02  0.168732D+00  0.102904D+01
      4  0.373006D-01  0.885242D-01  0.661669D-02  0.244756D+00
      5  0.622111D-02  0.143560D+00  0.872962D-01  0.367589D-01  0.243660D+00
      6  0.379185D-03  0.297755D-02  0.611890D-03 -0.222169D-02  0.191560D-02
                6 
      6  0.121251D-01
 Final forces over variables, Energy=-1.65454494D+02:
 -2.41646327D-03-8.62560953D-02-4.42334252D-02 1.24495806D-02
  9.78298386D-02 8.87130649D-04
 Leave Link  716 at Fri Apr 15 18:54:04 2022, MaxMem=   131072000 cpu:               0.0 elap:               0.0
 (Enter C:\G16W\l103.exe)

 GradGradGradGradGradGradGradGradGradGradGradGradGradGradGradGradGradGrad
 Berny optimization.
 Search for a local minimum.
 Step number   1 out of a maximum of    2
 All quantities printed in internal units (Hartrees-Bohrs-Radians)
 Second derivative matrix not updated -- analytic derivatives used.
 The second derivative matrix:
                          B1        B2        B3        A1        A2
           B1           0.52324
           B2          -0.01518   0.26577
           B3          -0.00617   0.16873   1.02904
           A1           0.03730   0.08852   0.00662   0.24476
           A2           0.00622   0.14356   0.08730   0.03676   0.24366
           D1           0.00038   0.00298   0.00061  -0.00222   0.00192
                          D1
           D1           0.01213
 ITU=  0
     Eigenvalues ---    0.01203   0.09513   0.20540   0.39530   0.52861
     Eigenvalues ---    1.08211
 Quadratic step=1.323D+00 exceeds max=3.000D-01 adjusted using Lamda=-3.296D-01.
 Angle between NR and scaled steps=  11.43 degrees.
 Angle between quadratic step and forces=  14.54 degrees.
 Linear search not attempted -- first point.
 Variable       Old X    -DE/DX   Delta X   Delta X   Delta X     New X
                                 (Linear)    (Quad)   (Total)
    B1        1.98834  -0.00242   0.00000  -0.00984  -0.00984   1.97851
    B2        2.62731  -0.08626   0.00000  -0.19792  -0.19792   2.42938
    B3        2.27412  -0.04423   0.00000  -0.02243  -0.02243   2.25169
    A1        1.86997   0.01245   0.00000   0.03893   0.03893   1.90891
    A2        2.32525   0.09783   0.00000   0.22123   0.22123   2.54649
    D1        3.06846   0.00089   0.00000   0.00338   0.00338   3.07184
         Item               Value     Threshold  Converged?
 Maximum Force            0.097830     0.000450     NO 
 RMS     Force            0.056464     0.000300     NO 
 Maximum Displacement     0.221233     0.001800     NO 
 RMS     Displacement     0.122641     0.001200     NO 
 Predicted change in Energy=-3.498182D-02
                       ----------------------------
                       ! Non-Optimized Parameters !
                       ! (Angstroms and Degrees)  !
 ----------------------                            ----------------------
 !      Name          Value   Derivative information (Atomic Units)     !
 ------------------------------------------------------------------------
 !       B1          1.047    -DE/DX =   -0.0024                        !
 !       B2          1.2856   -DE/DX =   -0.0863                        !
 !       B3          1.1915   -DE/DX =   -0.0442                        !
 !       A1        109.3723   -DE/DX =    0.0124                        !
 !       A2        145.903    -DE/DX =    0.0978                        !
 !       D1        176.0036   -DE/DX =    0.0009                        !
 ------------------------------------------------------------------------
 GradGradGradGradGradGradGradGradGradGradGradGradGradGradGradGradGradGrad

 Leave Link  103 at Fri Apr 15 18:54:04 2022, MaxMem=   131072000 cpu:               0.0 elap:               0.0
 (Enter C:\G16W\l9999.exe)

 ----------------------------------------------------------------------

 Electric dipole moment (input orientation):
 (Debye = 10**-18 statcoulomb cm , SI units = C m)
                  (au)            (Debye)         (10**-30 SI)
   Tot        0.810872D+00      0.206103D+01      0.687486D+01
   x          0.452095D+00      0.114911D+01      0.383302D+01
   y         -0.156552D-01     -0.397916D-01     -0.132730D+00
   z         -0.672962D+00     -0.171050D+01     -0.570561D+01

 Dipole polarizability, Alpha (input orientation).
 (esu units = cm**3 , SI units = C**2 m**2 J**-1)
 Alpha(0;0):
               (au)            (10**-24 esu)      (10**-40 SI)
   iso        0.113847D+02      0.168704D+01      0.187709D+01
   aniso      0.180492D+02      0.267462D+01      0.297592D+01
   xx         0.157451D+02      0.233318D+01      0.259602D+01
   yx         0.927817D-02      0.137488D-02      0.152976D-02
   yy         0.343197D+01      0.508566D+00      0.565856D+00
   zx         0.780632D+01      0.115678D+01      0.128709D+01
   zy         0.266376D+00      0.394728D-01      0.439194D-01
   zz         0.149771D+02      0.221937D+01      0.246938D+01

 First dipole hyperpolarizability, Beta (input orientation).
 ||, _|_  parallel and perpendicular components, (z) with respect to z axis,
 vector components x,y,z.  Values do not include the 1/n! factor of 1/2.
 (esu units = statvolt**-1 cm**4 , SI units = C**3 m**3 J**-2)
 Beta(0;0,0):
               (au)            (10**-30 esu)      (10**-50 SI)
   || (z)    -0.542751D+01     -0.468895D-01     -0.174026D-01
   _|_(z)    -0.180917D+01     -0.156298D-01     -0.580086D-02
   x          0.149197D+03      0.128894D+01      0.478379D+00
   y         -0.894835D+01     -0.773068D-01     -0.286917D-01
   z         -0.271376D+02     -0.234447D+00     -0.870128D-01
   ||         0.303817D+02      0.262474D+00      0.974147D-01
   xxx        0.403894D+02      0.348933D+00      0.129503D+00
   xxy       -0.253200D+01     -0.218745D-01     -0.811852D-02
   yxy        0.159505D+02      0.137800D+00      0.511432D-01
   yyy        0.738986D+00      0.638426D-02      0.236945D-02
   xxz        0.647725D+01      0.559584D-01      0.207684D-01
   yxz       -0.170984D+01     -0.147716D-01     -0.548235D-02
   yyz        0.703190D+01      0.607501D-01      0.225468D-01
   zxz       -0.660767D+01     -0.570851D-01     -0.211866D-01
   zyz       -0.118977D+01     -0.102787D-01     -0.381482D-02
   zzz       -0.225550D+02     -0.194858D+00     -0.723195D-01

 ----------------------------------------------------------------------

 Dipole orientation:
     1          0.00000000          0.00000000          0.00000000
     7          1.10858579          0.03838827         -1.65017370
     6          3.62444014          0.03857030         -0.89306794
     8          5.59273813         -0.04902095         -2.02874265

 Electric dipole moment (dipole orientation):
 (Debye = 10**-18 statcoulomb cm , SI units = C m)
                  (au)            (Debye)         (10**-30 SI)
   Tot        0.810872D+00      0.206103D+01      0.687486D+01
   x          0.000000D+00      0.000000D+00      0.000000D+00
   y          0.000000D+00      0.000000D+00      0.000000D+00
   z          0.810872D+00      0.206103D+01      0.687486D+01

 Dipole polarizability, Alpha (dipole orientation).
 (esu units = cm**3 , SI units = C**2 m**2 J**-1)
 Alpha(0;0):
               (au)            (10**-24 esu)      (10**-40 SI)
   iso        0.113847D+02      0.168704D+01      0.187709D+01
   aniso      0.180492D+02      0.267462D+01      0.297592D+01
   xx         0.227338D+02      0.336880D+01      0.374829D+01
   yx         0.750168D-02      0.111163D-02      0.123686D-02
   yy         0.342476D+01      0.507496D+00      0.564666D+00
   zx        -0.259898D+01     -0.385129D+00     -0.428514D+00
   zy         0.112525D+00      0.166745D-01      0.185529D-01
   zz         0.799560D+01      0.118483D+01      0.131830D+01

 First dipole hyperpolarizability, Beta (dipole orientation).
 ||, _|_  parallel and perpendicular components, (z) with respect to z axis,
 vector components x,y,z.  Values do not include the 1/n! factor of 1/2.
 (esu units = statvolt**-1 cm**4 , SI units = C**3 m**3 J**-2)
 Beta(0;0,0):
               (au)            (10**-30 esu)      (10**-50 SI)
   || (z)     0.211757D+02      0.182941D+00      0.678969D-01
   _|_(z)     0.705856D+01      0.609805D-01      0.226323D-01
   x          0.108669D+03      0.938819D+00      0.348433D+00
   y          0.754496D+01      0.651826D-01      0.241919D-01
   z          0.105878D+03      0.914707D+00      0.339484D+00
   ||         0.303817D+02      0.262474D+00      0.974147D-01
   xxx        0.214828D+02      0.185594D+00      0.688815D-01
   xxy        0.314032D+01      0.271299D-01      0.100690D-01
   yxy        0.171971D+02      0.148569D+00      0.551400D-01
   yyy       -0.612465D+00     -0.529122D-02     -0.196378D-02
   xxz        0.249742D+02      0.215757D+00      0.800763D-01
   yxz        0.482764D+00      0.417070D-02      0.154792D-02
   yyz        0.304618D+01      0.263166D-01      0.976715D-02
   zxz       -0.245671D+01     -0.212241D-01     -0.787711D-02
   zyz       -0.128688D-01     -0.111176D-03     -0.412619D-04
   zzz        0.727244D+01      0.628282D-01      0.233181D-01

 ----------------------------------------------------------------------

 Test job not archived.
 1|1|UNPC-DESKTOP-RNC6JTU|Freq|RHF|STO-3G|C1H1N1O1|BNULK|15-Apr-2022|1|
 |#p sto-3g scf=maxcycle=999 freq=noraman IOP(7/33=1) hf||T1||0,1|H|N,1
 ,B1|C,2,B2,1,A1|O,3,B3,2,A2,1,D1,0||B1=1.052186|B2=1.39031|B3=1.203413
 |A1=107.14165|A2=133.227244|D1=175.809694||Version=EM64W-G16RevA.03|St
 ate=1-A|HF=-165.4544943|RMSD=5.485e-009|RMSF=5.222e-002|ZeroPoint=0.02
 05429|Thermal=0.0238753|Dipole=0.4520953,-0.0156552,-0.6729617|DipoleD
 eriv=0.29314,0.0062893,0.1819674,-0.0100763,0.2957778,-0.0056213,0.080
 0576,-0.0019207,-0.036745,-0.6051072,-0.0423284,-0.6889492,0.0060232,-
 0.5272396,0.0075117,-0.0990947,0.0006043,-0.1433354,0.6982005,0.045181
 9,0.7450128,0.0452859,0.3614166,0.0221532,0.5217586,0.0078465,0.633912
 1,-0.3862334,-0.0091428,-0.238031,-0.0412327,-0.1299547,-0.0240437,-0.
 5027215,-0.0065302,-0.4538318|Polar=15.7451102,0.0092782,3.4319733,7.8
 063169,0.2663755,14.9770525|HyperPolar=40.389375,-2.5320031,15.9505424
 ,0.7389856,6.4772457,-1.7098351,7.0319,-6.6076675,-1.1897666,-22.55500
 04|Quadrupole=-1.312495,0.1736329,1.1388621,-0.092085,-0.5276081,-0.04
 60575|PG=C01 [X(C1H1N1O1)]|NImag=0||0.06312375,-0.00066050,0.00554527,
 0.02190865,0.00043439,0.52323505,-0.03646588,0.00224171,-0.04128910,0.
 20380128,0.00109313,-0.00648335,-0.00017059,0.00236268,0.05494193,0.04
 271839,-0.00024387,-0.51189446,0.10533493,0.00340231,0.68646380,-0.017
 88128,-0.00112441,0.01911541,-0.06803786,-0.00069454,-0.05400383,0.276
 24703,0.00001023,-0.00290791,-0.00095731,-0.00167884,-0.06873765,0.000
 29493,0.02143017,0.13993863,-0.06525193,0.00017286,-0.01805073,0.05146
 426,-0.00087058,-0.12060927,0.33492852,0.04128100,0.88608926,-0.008776
 60,-0.00045679,0.00026504,-0.09929755,-0.00276127,-0.09404949,-0.19032
 789,-0.01976157,-0.32114085,0.29840203,-0.00044286,0.00384598,0.000693
 51,-0.00292554,0.02027906,-0.00345336,-0.01961122,-0.06829307,-0.04058
 328,0.02297962,0.04416803,0.00062488,-0.00036338,0.00671014,-0.1155100
 8,-0.00236114,-0.05396007,-0.30004010,-0.04061861,-0.74742925,0.414925
 30,0.04334313,0.79467918||0.00626128,0.00046691,-0.00241646,-0.1010209
 4,0.00246628,0.01698630,0.11388627,-0.00797506,-0.07301851,-0.01912662
 ,0.00504187,0.05844867|||@


 I WANT TO KNOW HOW GOD CREATED THE WORLD.  I AM NOT INTERESTED IN
 THIS OR THAT PHENOMENON, IN THE SPECTRUM OF THIS OR THAT ELEMENT.
 I WANT TO KNOW HIS THOUGHTS, THE REST ARE DETAILS.
     -- ALBERT EINSTEIN
 Job cpu time:       0 days  0 hours  0 minutes  2.0 seconds.
 Elapsed time:       0 days  0 hours  0 minutes  1.2 seconds.
 File lengths (MBytes):  RWF=      6 Int=      0 D2E=      0 Chk=      1 Scr=      1
 Normal termination of Gaussian 16 at Fri Apr 15 18:54:04 2022.
