 Entering Gaussian System, Link 0=g16
 Input=State2_4.gjf
 Output=State2_4.out
 Initial command:
 C:\G16W\l1.exe ".\Gau-17948.inp" "State2_4.out" /scrdir=".\"
 Entering Link 1 = C:\G16W\l1.exe PID=     15516.
  
 Copyright (c) 1988,1990,1992,1993,1995,1998,2003,2009,2016,
            Gaussian, Inc.  All Rights Reserved.
  
 This is part of the Gaussian(R) 16 program.  It is based on
 the Gaussian(R) 09 system (copyright 2009, Gaussian, Inc.),
 the Gaussian(R) 03 system (copyright 2003, Gaussian, Inc.),
 the Gaussian(R) 98 system (copyright 1998, Gaussian, Inc.),
 the Gaussian(R) 94 system (copyright 1995, Gaussian, Inc.),
 the Gaussian 92(TM) system (copyright 1992, Gaussian, Inc.),
 the Gaussian 90(TM) system (copyright 1990, Gaussian, Inc.),
 the Gaussian 88(TM) system (copyright 1988, Gaussian, Inc.),
 the Gaussian 86(TM) system (copyright 1986, Carnegie Mellon
 University), and the Gaussian 82(TM) system (copyright 1983,
 Carnegie Mellon University). Gaussian is a federally registered
 trademark of Gaussian, Inc.
  
 This software contains proprietary and confidential information,
 including trade secrets, belonging to Gaussian, Inc.
  
 This software is provided under written license and may be
 used, copied, transmitted, or stored only in accord with that
 written license.
  
 The following legend is applicable only to US Government
 contracts under FAR:
  
                    RESTRICTED RIGHTS LEGEND
  
 Use, reproduction and disclosure by the US Government is
 subject to restrictions as set forth in subparagraphs (a)
 and (c) of the Commercial Computer Software - Restricted
 Rights clause in FAR 52.227-19.
  
 Gaussian, Inc.
 340 Quinnipiac St., Bldg. 40, Wallingford CT 06492
  
  
 ---------------------------------------------------------------
 Warning -- This program may not be used in any manner that
 competes with the business of Gaussian, Inc. or will provide
 assistance to any competitor of Gaussian, Inc.  The licensee
 of this program is prohibited from giving any competitor of
 Gaussian, Inc. access to this program.  By using this program,
 the user acknowledges that Gaussian, Inc. is engaged in the
 business of creating and licensing software in the field of
 computational chemistry and represents and warrants to the
 licensee that it is not a competitor of Gaussian, Inc. and that
 it will not use this program in any manner prohibited above.
 ---------------------------------------------------------------
  

 Cite this work as:
 Gaussian 16, Revision A.03,
 M. J. Frisch, G. W. Trucks, H. B. Schlegel, G. E. Scuseria, 
 M. A. Robb, J. R. Cheeseman, G. Scalmani, V. Barone, 
 G. A. Petersson, H. Nakatsuji, X. Li, M. Caricato, A. V. Marenich, 
 J. Bloino, B. G. Janesko, R. Gomperts, B. Mennucci, H. P. Hratchian, 
 J. V. Ortiz, A. F. Izmaylov, J. L. Sonnenberg, D. Williams-Young, 
 F. Ding, F. Lipparini, F. Egidi, J. Goings, B. Peng, A. Petrone, 
 T. Henderson, D. Ranasinghe, V. G. Zakrzewski, J. Gao, N. Rega, 
 G. Zheng, W. Liang, M. Hada, M. Ehara, K. Toyota, R. Fukuda, 
 J. Hasegawa, M. Ishida, T. Nakajima, Y. Honda, O. Kitao, H. Nakai, 
 T. Vreven, K. Throssell, J. A. Montgomery, Jr., J. E. Peralta, 
 F. Ogliaro, M. J. Bearpark, J. J. Heyd, E. N. Brothers, K. N. Kudin, 
 V. N. Staroverov, T. A. Keith, R. Kobayashi, J. Normand, 
 K. Raghavachari, A. P. Rendell, J. C. Burant, S. S. Iyengar, 
 J. Tomasi, M. Cossi, J. M. Millam, M. Klene, C. Adamo, R. Cammi, 
 J. W. Ochterski, R. L. Martin, K. Morokuma, O. Farkas, 
 J. B. Foresman, and D. J. Fox, Gaussian, Inc., Wallingford CT, 2016.
 
 ******************************************
 Gaussian 16:  EM64W-G16RevA.03 17-Dec-2016
                15-Apr-2022 
 ******************************************
 %mem=1000mb
 %chk=LiuKun2.chk
 ------------------------------------------------------
 #p sto-3g scf=maxcycle=999 freq=noraman IOP(7/33=1) hf
 ------------------------------------------------------
 1/10=4,30=1,38=1/1,3;
 2/12=2,17=6,18=5,40=1/2;
 3/6=3,11=9,25=1,30=1,71=2,140=1/1,2,3;
 4//1;
 5/5=2,7=999,38=5,98=1/2;
 8/6=4,10=90,11=11/1;
 11/6=1,8=1,9=11,15=111,16=1/1,2,10;
 10/6=1/2;
 6/7=2,8=2,9=2,10=2,28=1/1;
 7/8=1,10=1,25=1,33=1/1,2,3,16;
 1/10=4,30=1/3;
 99//99;
 Leave Link    1 at Fri Apr 15 18:54:08 2022, MaxMem=   131072000 cpu:               0.0 elap:               0.0
 (Enter C:\G16W\l101.exe)
 --
 T1
 --
 Symbolic Z-matrix:
 Charge =  0 Multiplicity = 3
 H
 N                    1    B1
 C                    2    B2       1    A1
 O                    3    B3       2    A2       1    D1       0
       Variables:
  B1                    1.05101                  
  B2                    1.3642                   
  B3                    1.2321                   
  A1                  107.60004                  
  A2                  133.85208                  
  D1                  180.58575                  
 
 ITRead=  0  0  0  0
 MicOpt= -1 -1 -1 -1
 NAtoms=      4 NQM=        4 NQMF=       0 NMMI=      0 NMMIF=      0
                NMic=       0 NMicF=      0.
                    Isotopes and Nuclear Properties:
 (Nuclear quadrupole moments (NQMom) in fm**2, nuclear magnetic moments (NMagM)
  in nuclear magnetons)

  Atom         1           2           3           4
 IAtWgt=           1          14          12          16
 AtmWgt=   1.0078250  14.0030740  12.0000000  15.9949146
 NucSpn=           1           2           0           0
 AtZEff=   0.0000000   0.0000000   0.0000000   0.0000000
 NQMom=    0.0000000   2.0440000   0.0000000   0.0000000
 NMagM=    2.7928460   0.4037610   0.0000000   0.0000000
 AtZNuc=   1.0000000   7.0000000   6.0000000   8.0000000
 Leave Link  101 at Fri Apr 15 18:54:08 2022, MaxMem=   131072000 cpu:               0.0 elap:               0.1
 (Enter C:\G16W\l103.exe)

 GradGradGradGradGradGradGradGradGradGradGradGradGradGradGradGradGradGrad
 Berny optimization.
 Initialization pass.
                       ----------------------------
                       !    Initial Parameters    !
                       ! (Angstroms and Degrees)  !
 ----------------------                            ----------------------
 !      Name          Value   Derivative information (Atomic Units)     !
 ------------------------------------------------------------------------
 !       B1          1.051    calculate D2E/DX2 analytically            !
 !       B2          1.3642   calculate D2E/DX2 analytically            !
 !       B3          1.2321   calculate D2E/DX2 analytically            !
 !       A1        107.6      calculate D2E/DX2 analytically            !
 !       A2        133.8521   calculate D2E/DX2 analytically            !
 !       D1        180.5858   calculate D2E/DX2 analytically            !
 ------------------------------------------------------------------------
 Trust Radius=3.00D-01 FncErr=1.00D-07 GrdErr=1.00D-07 EigMax=2.50D+02 EigMin=1.00D-04
 Number of steps in this run=      2 maximum allowed number of steps=      2.
 GradGradGradGradGradGradGradGradGradGradGradGradGradGradGradGradGradGrad

 Leave Link  103 at Fri Apr 15 18:54:08 2022, MaxMem=   131072000 cpu:               0.0 elap:               0.0
 (Enter C:\G16W\l202.exe)
                          Input orientation:                          
 ---------------------------------------------------------------------
 Center     Atomic      Atomic             Coordinates (Angstroms)
 Number     Number       Type             X           Y           Z
 ---------------------------------------------------------------------
      1          1           0        0.000000    0.000000    0.000000
      2          7           0        0.000000    0.000000    1.051012
      3          6           0        1.300341    0.000000    1.463506
      4          8           0        1.845337   -0.009083    2.568474
 ---------------------------------------------------------------------
                    Distance matrix (angstroms):
                    1          2          3          4
     1  H    0.000000
     2  N    1.051012   0.000000
     3  C    1.957738   1.364199   0.000000
     4  O    3.162659   2.389151   1.232095   0.000000
 Stoichiometry    CHNO(3)
 Framework group  C1[X(CHNO)]
 Deg. of freedom     6
 Full point group                 C1      NOp   1
 Largest Abelian subgroup         C1      NOp   1
 Largest concise Abelian subgroup C1      NOp   1
                         Standard orientation:                         
 ---------------------------------------------------------------------
 Center     Atomic      Atomic             Coordinates (Angstroms)
 Number     Number       Type             X           Y           Z
 ---------------------------------------------------------------------
      1          1           0        1.882663    0.536883    0.006301
      2          7           0        1.172780   -0.238130   -0.000475
      3          6           0       -0.064724    0.335997   -0.001680
      4          8           0       -1.212972   -0.110744    0.000888
 ---------------------------------------------------------------------
 Rotational constants (GHZ):         194.0186976          10.9012556          10.3213686
 Leave Link  202 at Fri Apr 15 18:54:08 2022, MaxMem=   131072000 cpu:               0.0 elap:               0.0
 (Enter C:\G16W\l301.exe)
 Standard basis: STO-3G (5D, 7F)
 Ernie: Thresh=  0.10000D-02 Tol=  0.10000D-05 Strict=F.
 There are    16 symmetry adapted cartesian basis functions of A   symmetry.
 There are    16 symmetry adapted basis functions of A   symmetry.
    16 basis functions,    48 primitive gaussians,    16 cartesian basis functions
    12 alpha electrons       10 beta electrons
       nuclear repulsion energy        55.7959952812 Hartrees.
 IExCor=    0 DFT=F Ex=HF Corr=None ExCW=0 ScaHFX=  1.000000
 ScaDFX=  1.000000  1.000000  1.000000  1.000000 ScalE2=  1.000000  1.000000
 IRadAn=      5 IRanWt=     -1 IRanGd=            0 ICorTp=0 IEmpDi=  4
 NAtoms=    4 NActive=    4 NUniq=    4 SFac= 1.00D+00 NAtFMM=   60 NAOKFM=F Big=F
 Integral buffers will be    131072 words long.
 Raffenetti 2 integral format.
 Two-electron integral symmetry is turned on.
 Leave Link  301 at Fri Apr 15 18:54:08 2022, MaxMem=   131072000 cpu:               0.0 elap:               0.0
 (Enter C:\G16W\l302.exe)
 NPDir=0 NMtPBC=     1 NCelOv=     1 NCel=       1 NClECP=     1 NCelD=      1
         NCelK=      1 NCelE2=     1 NClLst=     1 CellRange=     0.0.
 One-electron integrals computed using PRISM.
 One-electron integral symmetry used in STVInt
 NBasis=    16 RedAO= T EigKep=  2.64D-01  NBF=    16
 NBsUse=    16 1.00D-06 EigRej= -1.00D+00 NBFU=    16
 Leave Link  302 at Fri Apr 15 18:54:09 2022, MaxMem=   131072000 cpu:               1.0 elap:               0.1
 (Enter C:\G16W\l303.exe)
 DipDrv:  MaxL=1.
 Leave Link  303 at Fri Apr 15 18:54:09 2022, MaxMem=   131072000 cpu:               0.0 elap:               0.0
 (Enter C:\G16W\l401.exe)
 ExpMin= 1.69D-01 ExpMax= 1.31D+02 ExpMxC= 1.31D+02 IAcc=3 IRadAn=         5 AccDes= 0.00D+00
 Harris functional with IExCor=  205 and IRadAn=       5 diagonalized for initial guess.
 HarFok:  IExCor=  205 AccDes= 0.00D+00 IRadAn=         5 IDoV= 1 UseB2=F ITyADJ=14
 ICtDFT=  3500011 ScaDFX=  1.000000  1.000000  1.000000  1.000000
 FoFCou: FMM=F IPFlag=           0 FMFlag=      100000 FMFlg1=           0
         NFxFlg=           0 DoJE=T BraDBF=F KetDBF=T FulRan=T
         wScrn=  0.000000 ICntrl=       500 IOpCl=  0 I1Cent=   200000004 NGrid=           0
         NMat0=    1 NMatS0=      1 NMatT0=    0 NMatD0=    1 NMtDS0=    0 NMtDT0=    0
 Petite list used in FoFCou.
 Harris En= -165.374119111618    
 JPrj=0 DoOrth=F DoCkMO=F.
 Initial guess <Sx>= 0.0000 <Sy>= 0.0000 <Sz>= 1.0000 <S**2>= 2.0000 S= 1.0000
 Leave Link  401 at Fri Apr 15 18:54:09 2022, MaxMem=   131072000 cpu:               0.0 elap:               0.2
 (Enter C:\G16W\l502.exe)
 Keep R1 and R2 ints in memory in canonical form, NReq=823457.
 FoFCou: FMM=F IPFlag=           0 FMFlag=           0 FMFlg1=           0
         NFxFlg=           0 DoJE=F BraDBF=F KetDBF=F FulRan=T
         wScrn=  0.000000 ICntrl=       600 IOpCl=  0 I1Cent=           0 NGrid=           0
         NMat0=    1 NMatS0=    136 NMatT0=    0 NMatD0=    1 NMtDS0=    0 NMtDT0=    0
 Symmetry not used in FoFCou.
 Two-electron integral symmetry not used.
 UHF open shell SCF:
 Using DIIS extrapolation, IDIIS=  1040.
 NGot=   131072000 LenX=   131051941 LenY=   131051059
 Requested convergence on RMS density matrix=1.00D-08 within 999 cycles.
 Requested convergence on MAX density matrix=1.00D-06.
 Requested convergence on             energy=1.00D-06.
 No special actions if energy rises.

 Cycle   1  Pass 1  IDiag  1:
 E= -165.402174163907    
 DIIS: error= 3.17D-02 at cycle   1 NSaved=   1.
 NSaved= 1 IEnMin= 1 EnMin= -165.402174163907     IErMin= 1 ErrMin= 3.17D-02
 ErrMax= 3.17D-02  0.00D+00 EMaxC= 1.00D-01 BMatC= 9.65D-02 BMatP= 9.65D-02
 IDIUse=3 WtCom= 6.83D-01 WtEn= 3.17D-01
 Coeff-Com:  0.100D+01
 Coeff-En:   0.100D+01
 Coeff:      0.100D+01
 Gap=     0.531 Goal=   None    Shift=    0.000
 Gap=     0.492 Goal=   None    Shift=    0.000
 GapD=    0.492 DampG=2.000 DampE=0.500 DampFc=1.0000 IDamp=-1.
 RMSDP=1.19D-02 MaxDP=8.17D-02              OVMax= 0.00D+00

 Cycle   2  Pass 1  IDiag  1:
 E= -165.436474443654     Delta-E=       -0.034300279748 Rises=F Damp=F
 DIIS: error= 2.22D-02 at cycle   2 NSaved=   2.
 NSaved= 2 IEnMin= 2 EnMin= -165.436474443654     IErMin= 2 ErrMin= 2.22D-02
 ErrMax= 2.22D-02  0.00D+00 EMaxC= 1.00D-01 BMatC= 1.21D-02 BMatP= 9.65D-02
 IDIUse=3 WtCom= 7.78D-01 WtEn= 2.22D-01
 Coeff-Com: -0.128D+00 0.113D+01
 Coeff-En:   0.000D+00 0.100D+01
 Coeff:     -0.995D-01 0.110D+01
 Gap=     0.558 Goal=   None    Shift=    0.000
 Gap=     0.534 Goal=   None    Shift=    0.000
 RMSDP=6.41D-03 MaxDP=5.63D-02 DE=-3.43D-02 OVMax= 0.00D+00

 Cycle   3  Pass 1  IDiag  1:
 E= -165.446963664048     Delta-E=       -0.010489220394 Rises=F Damp=F
 DIIS: error= 1.51D-02 at cycle   3 NSaved=   3.
 NSaved= 3 IEnMin= 3 EnMin= -165.446963664048     IErMin= 3 ErrMin= 1.51D-02
 ErrMax= 1.51D-02  0.00D+00 EMaxC= 1.00D-01 BMatC= 4.05D-03 BMatP= 1.21D-02
 IDIUse=3 WtCom= 8.49D-01 WtEn= 1.51D-01
 Coeff-Com: -0.362D-01-0.355D+00 0.139D+01
 Coeff-En:   0.000D+00 0.000D+00 0.100D+01
 Coeff:     -0.307D-01-0.301D+00 0.133D+01
 Gap=     0.572 Goal=   None    Shift=    0.000
 Gap=     0.548 Goal=   None    Shift=    0.000
 RMSDP=4.91D-03 MaxDP=5.83D-02 DE=-1.05D-02 OVMax= 0.00D+00

 Cycle   4  Pass 1  IDiag  1:
 E= -165.451723822498     Delta-E=       -0.004760158449 Rises=F Damp=F
 DIIS: error= 7.93D-03 at cycle   4 NSaved=   4.
 NSaved= 4 IEnMin= 4 EnMin= -165.451723822498     IErMin= 4 ErrMin= 7.93D-03
 ErrMax= 7.93D-03  0.00D+00 EMaxC= 1.00D-01 BMatC= 1.71D-03 BMatP= 4.05D-03
 IDIUse=3 WtCom= 9.21D-01 WtEn= 7.93D-02
 Coeff-Com:  0.258D-01-0.392D+00 0.272D+00 0.109D+01
 Coeff-En:   0.000D+00 0.000D+00 0.000D+00 0.100D+01
 Coeff:      0.238D-01-0.361D+00 0.251D+00 0.109D+01
 Gap=     0.582 Goal=   None    Shift=    0.000
 Gap=     0.567 Goal=   None    Shift=    0.000
 RMSDP=3.52D-03 MaxDP=3.88D-02 DE=-4.76D-03 OVMax= 0.00D+00

 Cycle   5  Pass 1  IDiag  1:
 E= -165.453996364165     Delta-E=       -0.002272541668 Rises=F Damp=F
 DIIS: error= 5.20D-03 at cycle   5 NSaved=   5.
 NSaved= 5 IEnMin= 5 EnMin= -165.453996364165     IErMin= 5 ErrMin= 5.20D-03
 ErrMax= 5.20D-03  0.00D+00 EMaxC= 1.00D-01 BMatC= 7.09D-04 BMatP= 1.71D-03
 IDIUse=3 WtCom= 9.48D-01 WtEn= 5.20D-02
 Coeff-Com:  0.752D-03 0.111D+00-0.207D+00-0.496D+00 0.159D+01
 Coeff-En:   0.000D+00 0.000D+00 0.000D+00 0.000D+00 0.100D+01
 Coeff:      0.713D-03 0.105D+00-0.196D+00-0.470D+00 0.156D+01
 Gap=     0.586 Goal=   None    Shift=    0.000
 Gap=     0.576 Goal=   None    Shift=    0.000
 RMSDP=3.06D-03 MaxDP=3.57D-02 DE=-2.27D-03 OVMax= 0.00D+00

 Cycle   6  Pass 1  IDiag  1:
 E= -165.455485841044     Delta-E=       -0.001489476878 Rises=F Damp=F
 DIIS: error= 4.02D-03 at cycle   6 NSaved=   6.
 NSaved= 6 IEnMin= 6 EnMin= -165.455485841044     IErMin= 6 ErrMin= 4.02D-03
 ErrMax= 4.02D-03  0.00D+00 EMaxC= 1.00D-01 BMatC= 3.88D-04 BMatP= 7.09D-04
 IDIUse=3 WtCom= 9.60D-01 WtEn= 4.02D-02
 Coeff-Com: -0.271D-01 0.237D+00 0.811D-01-0.954D+00-0.718D+00 0.238D+01
 Coeff-En:   0.000D+00 0.000D+00 0.000D+00 0.000D+00 0.000D+00 0.100D+01
 Coeff:     -0.260D-01 0.227D+00 0.778D-01-0.916D+00-0.689D+00 0.233D+01
 Gap=     0.593 Goal=   None    Shift=    0.000
 Gap=     0.589 Goal=   None    Shift=    0.000
 RMSDP=4.89D-03 MaxDP=5.08D-02 DE=-1.49D-03 OVMax= 0.00D+00

 Cycle   7  Pass 1  IDiag  1:
 E= -165.456695682302     Delta-E=       -0.001209841258 Rises=F Damp=F
 DIIS: error= 1.04D-03 at cycle   7 NSaved=   7.
 NSaved= 7 IEnMin= 7 EnMin= -165.456695682302     IErMin= 7 ErrMin= 1.04D-03
 ErrMax= 1.04D-03  0.00D+00 EMaxC= 1.00D-01 BMatC= 2.54D-05 BMatP= 3.88D-04
 IDIUse=3 WtCom= 9.90D-01 WtEn= 1.04D-02
 Coeff-Com:  0.104D-01-0.147D+00 0.654D-01 0.521D+00-0.589D-01-0.836D+00
 Coeff-Com:  0.145D+01
 Coeff-En:   0.000D+00 0.000D+00 0.000D+00 0.000D+00 0.000D+00 0.000D+00
 Coeff-En:   0.100D+01
 Coeff:      0.103D-01-0.146D+00 0.647D-01 0.515D+00-0.582D-01-0.827D+00
 Coeff:      0.144D+01
 Gap=     0.594 Goal=   None    Shift=    0.000
 Gap=     0.589 Goal=   None    Shift=    0.000
 RMSDP=5.26D-04 MaxDP=3.90D-03 DE=-1.21D-03 OVMax= 0.00D+00

 Cycle   8  Pass 1  IDiag  1:
 E= -165.456731520045     Delta-E=       -0.000035837742 Rises=F Damp=F
 DIIS: error= 4.07D-04 at cycle   8 NSaved=   8.
 NSaved= 8 IEnMin= 8 EnMin= -165.456731520045     IErMin= 8 ErrMin= 4.07D-04
 ErrMax= 4.07D-04  0.00D+00 EMaxC= 1.00D-01 BMatC= 6.41D-06 BMatP= 2.54D-05
 IDIUse=3 WtCom= 9.96D-01 WtEn= 4.07D-03
 Coeff-Com: -0.535D-02 0.845D-01-0.333D-01-0.337D+00 0.593D-01 0.366D+00
 Coeff-Com: -0.111D+01 0.198D+01
 Coeff-En:   0.000D+00 0.000D+00 0.000D+00 0.000D+00 0.000D+00 0.000D+00
 Coeff-En:   0.000D+00 0.100D+01
 Coeff:     -0.533D-02 0.842D-01-0.332D-01-0.336D+00 0.591D-01 0.365D+00
 Coeff:     -0.111D+01 0.198D+01
 Gap=     0.595 Goal=   None    Shift=    0.000
 Gap=     0.593 Goal=   None    Shift=    0.000
 RMSDP=8.67D-04 MaxDP=8.22D-03 DE=-3.58D-05 OVMax= 0.00D+00

 Cycle   9  Pass 1  IDiag  1:
 E= -165.456742669670     Delta-E=       -0.000011149626 Rises=F Damp=F
 DIIS: error= 2.53D-04 at cycle   9 NSaved=   9.
 NSaved= 9 IEnMin= 9 EnMin= -165.456742669670     IErMin= 9 ErrMin= 2.53D-04
 ErrMax= 2.53D-04  0.00D+00 EMaxC= 1.00D-01 BMatC= 2.62D-06 BMatP= 6.41D-06
 IDIUse=3 WtCom= 9.97D-01 WtEn= 2.53D-03
 Coeff-Com:  0.124D-03-0.219D-02-0.565D-02 0.491D-01-0.255D-01 0.107D+00
 Coeff-Com:  0.126D+00-0.652D+00 0.140D+01
 Coeff-En:   0.000D+00 0.000D+00 0.000D+00 0.000D+00 0.000D+00 0.000D+00
 Coeff-En:   0.000D+00 0.000D+00 0.100D+01
 Coeff:      0.123D-03-0.218D-02-0.564D-02 0.490D-01-0.254D-01 0.106D+00
 Coeff:      0.126D+00-0.651D+00 0.140D+01
 Gap=     0.594 Goal=   None    Shift=    0.000
 Gap=     0.591 Goal=   None    Shift=    0.000
 RMSDP=4.60D-04 MaxDP=4.30D-03 DE=-1.11D-05 OVMax= 0.00D+00

 Cycle  10  Pass 1  IDiag  1:
 E= -165.456746162090     Delta-E=       -0.000003492420 Rises=F Damp=F
 DIIS: error= 1.17D-04 at cycle  10 NSaved=  10.
 NSaved=10 IEnMin=10 EnMin= -165.456746162090     IErMin=10 ErrMin= 1.17D-04
 ErrMax= 1.17D-04  0.00D+00 EMaxC= 1.00D-01 BMatC= 4.58D-07 BMatP= 2.62D-06
 IDIUse=3 WtCom= 9.99D-01 WtEn= 1.17D-03
 Coeff-Com:  0.681D-03-0.122D-01 0.520D-02 0.261D-01 0.309D-02-0.133D+00
 Coeff-Com:  0.125D+00-0.751D-01-0.546D+00 0.161D+01
 Coeff-En:   0.000D+00 0.000D+00 0.000D+00 0.000D+00 0.000D+00 0.000D+00
 Coeff-En:   0.000D+00 0.000D+00 0.000D+00 0.100D+01
 Coeff:      0.681D-03-0.122D-01 0.520D-02 0.261D-01 0.309D-02-0.132D+00
 Coeff:      0.125D+00-0.750D-01-0.546D+00 0.161D+01
 Gap=     0.594 Goal=   None    Shift=    0.000
 Gap=     0.592 Goal=   None    Shift=    0.000
 RMSDP=2.19D-04 MaxDP=2.12D-03 DE=-3.49D-06 OVMax= 0.00D+00

 Cycle  11  Pass 1  IDiag  1:
 E= -165.456747197346     Delta-E=       -0.000001035256 Rises=F Damp=F
 DIIS: error= 4.95D-05 at cycle  11 NSaved=  11.
 NSaved=11 IEnMin=11 EnMin= -165.456747197346     IErMin=11 ErrMin= 4.95D-05
 ErrMax= 4.95D-05  0.00D+00 EMaxC= 1.00D-01 BMatC= 7.14D-08 BMatP= 4.58D-07
 IDIUse=1 WtCom= 1.00D+00 WtEn= 0.00D+00
 Coeff-Com: -0.157D-03 0.326D-02-0.244D-03-0.107D-01 0.164D-02 0.168D-01
 Coeff-Com: -0.515D-01 0.134D+00-0.121D+00-0.197D+00 0.122D+01
 Coeff:     -0.157D-03 0.326D-02-0.244D-03-0.107D-01 0.164D-02 0.168D-01
 Coeff:     -0.515D-01 0.134D+00-0.121D+00-0.197D+00 0.122D+01
 Gap=     0.594 Goal=   None    Shift=    0.000
 Gap=     0.592 Goal=   None    Shift=    0.000
 RMSDP=5.55D-05 MaxDP=5.56D-04 DE=-1.04D-06 OVMax= 0.00D+00

 Cycle  12  Pass 1  IDiag  1:
 E= -165.456747336357     Delta-E=       -0.000000139012 Rises=F Damp=F
 DIIS: error= 4.80D-06 at cycle  12 NSaved=  12.
 NSaved=12 IEnMin=12 EnMin= -165.456747336357     IErMin=12 ErrMin= 4.80D-06
 ErrMax= 4.80D-06  0.00D+00 EMaxC= 1.00D-01 BMatC= 9.93D-10 BMatP= 7.14D-08
 IDIUse=1 WtCom= 1.00D+00 WtEn= 0.00D+00
 Coeff-Com: -0.909D-05-0.384D-03-0.286D-03 0.422D-03-0.121D-02-0.695D-03
 Coeff-Com:  0.922D-02-0.375D-01 0.448D-01 0.310D-01-0.631D+00 0.159D+01
 Coeff:     -0.909D-05-0.384D-03-0.286D-03 0.422D-03-0.121D-02-0.695D-03
 Coeff:      0.922D-02-0.375D-01 0.448D-01 0.310D-01-0.631D+00 0.159D+01
 Gap=     0.594 Goal=   None    Shift=    0.000
 Gap=     0.592 Goal=   None    Shift=    0.000
 RMSDP=7.08D-06 MaxDP=5.63D-05 DE=-1.39D-07 OVMax= 0.00D+00

 Cycle  13  Pass 1  IDiag  1:
 E= -165.456747336707     Delta-E=       -0.000000000350 Rises=F Damp=F
 DIIS: error= 4.28D-06 at cycle  13 NSaved=  13.
 NSaved=13 IEnMin=13 EnMin= -165.456747336707     IErMin=13 ErrMin= 4.28D-06
 ErrMax= 4.28D-06  0.00D+00 EMaxC= 1.00D-01 BMatC= 6.56D-10 BMatP= 9.93D-10
 IDIUse=1 WtCom= 1.00D+00 WtEn= 0.00D+00
 Coeff-Com:  0.981D-05-0.558D-04 0.945D-04-0.193D-03 0.898D-03-0.398D-02
 Coeff-Com: -0.131D-02 0.143D-01-0.391D-01 0.644D-01 0.103D+00-0.722D+00
 Coeff-Com:  0.158D+01
 Coeff:      0.981D-05-0.558D-04 0.945D-04-0.193D-03 0.898D-03-0.398D-02
 Coeff:     -0.131D-02 0.143D-01-0.391D-01 0.644D-01 0.103D+00-0.722D+00
 Coeff:      0.158D+01
 Gap=     0.594 Goal=   None    Shift=    0.000
 Gap=     0.592 Goal=   None    Shift=    0.000
 RMSDP=3.52D-06 MaxDP=3.15D-05 DE=-3.50D-10 OVMax= 0.00D+00

 Cycle  14  Pass 1  IDiag  1:
 E= -165.456747337840     Delta-E=       -0.000000001133 Rises=F Damp=F
 DIIS: error= 1.64D-06 at cycle  14 NSaved=  14.
 NSaved=14 IEnMin=14 EnMin= -165.456747337840     IErMin=14 ErrMin= 1.64D-06
 ErrMax= 1.64D-06  0.00D+00 EMaxC= 1.00D-01 BMatC= 9.26D-11 BMatP= 6.56D-10
 IDIUse=1 WtCom= 1.00D+00 WtEn= 0.00D+00
 Coeff-Com: -0.140D-04 0.870D-04 0.121D-04-0.392D-03-0.886D-03 0.323D-02
 Coeff-Com:  0.167D-03-0.963D-02 0.257D-01-0.384D-01-0.110D+00 0.683D+00
 Coeff-Com: -0.179D+01 0.223D+01
 Coeff:     -0.140D-04 0.870D-04 0.121D-04-0.392D-03-0.886D-03 0.323D-02
 Coeff:      0.167D-03-0.963D-02 0.257D-01-0.384D-01-0.110D+00 0.683D+00
 Coeff:     -0.179D+01 0.223D+01
 Gap=     0.594 Goal=   None    Shift=    0.000
 Gap=     0.592 Goal=   None    Shift=    0.000
 RMSDP=2.18D-06 MaxDP=1.95D-05 DE=-1.13D-09 OVMax= 0.00D+00

 Cycle  15  Pass 1  IDiag  1:
 E= -165.456747338049     Delta-E=       -0.000000000209 Rises=F Damp=F
 DIIS: error= 4.51D-07 at cycle  15 NSaved=  15.
 NSaved=15 IEnMin=15 EnMin= -165.456747338049     IErMin=15 ErrMin= 4.51D-07
 ErrMax= 4.51D-07  0.00D+00 EMaxC= 1.00D-01 BMatC= 8.65D-12 BMatP= 9.26D-11
 IDIUse=1 WtCom= 1.00D+00 WtEn= 0.00D+00
 Coeff-Com:  0.695D-05-0.158D-04-0.932D-04 0.287D-03 0.641D-03-0.150D-02
 Coeff-Com: -0.438D-04 0.453D-02-0.102D-01 0.102D-01 0.689D-01-0.363D+00
 Coeff-Com:  0.105D+01-0.189D+01 0.213D+01
 Coeff:      0.695D-05-0.158D-04-0.932D-04 0.287D-03 0.641D-03-0.150D-02
 Coeff:     -0.438D-04 0.453D-02-0.102D-01 0.102D-01 0.689D-01-0.363D+00
 Coeff:      0.105D+01-0.189D+01 0.213D+01
 Gap=     0.594 Goal=   None    Shift=    0.000
 Gap=     0.592 Goal=   None    Shift=    0.000
 RMSDP=7.61D-07 MaxDP=4.45D-06 DE=-2.09D-10 OVMax= 0.00D+00

 Cycle  16  Pass 1  IDiag  1:
 E= -165.456747338069     Delta-E=       -0.000000000020 Rises=F Damp=F
 DIIS: error= 3.06D-07 at cycle  16 NSaved=  16.
 NSaved=16 IEnMin=16 EnMin= -165.456747338069     IErMin=16 ErrMin= 3.06D-07
 ErrMax= 3.06D-07  0.00D+00 EMaxC= 1.00D-01 BMatC= 5.20D-12 BMatP= 8.65D-12
 IDIUse=1 WtCom= 1.00D+00 WtEn= 0.00D+00
 Coeff-Com: -0.250D-05-0.163D-04 0.108D-03-0.453D-04-0.582D-03 0.122D-02
 Coeff-Com:  0.210D-03-0.364D-02 0.876D-02-0.961D-02-0.374D-01 0.220D+00
 Coeff-Com: -0.719D+00 0.156D+01-0.232D+01 0.230D+01
 Coeff:     -0.250D-05-0.163D-04 0.108D-03-0.453D-04-0.582D-03 0.122D-02
 Coeff:      0.210D-03-0.364D-02 0.876D-02-0.961D-02-0.374D-01 0.220D+00
 Coeff:     -0.719D+00 0.156D+01-0.232D+01 0.230D+01
 Gap=     0.594 Goal=   None    Shift=    0.000
 Gap=     0.592 Goal=   None    Shift=    0.000
 RMSDP=4.28D-07 MaxDP=2.75D-06 DE=-2.01D-11 OVMax= 0.00D+00

 Cycle  17  Pass 1  IDiag  1:
 E= -165.456747338082     Delta-E=       -0.000000000014 Rises=F Damp=F
 DIIS: error= 1.74D-07 at cycle  17 NSaved=  17.
 NSaved=17 IEnMin=17 EnMin= -165.456747338082     IErMin=17 ErrMin= 1.74D-07
 ErrMax= 1.74D-07  0.00D+00 EMaxC= 1.00D-01 BMatC= 1.53D-12 BMatP= 5.20D-12
 IDIUse=1 WtCom= 1.00D+00 WtEn= 0.00D+00
 Coeff-Com:  0.134D-05 0.117D-04-0.711D-04 0.207D-04 0.382D-03-0.739D-03
 Coeff-Com: -0.102D-03 0.207D-02-0.499D-02 0.479D-02 0.224D-01-0.124D+00
 Coeff-Com:  0.413D+00-0.944D+00 0.151D+01-0.209D+01 0.221D+01
 Coeff:      0.134D-05 0.117D-04-0.711D-04 0.207D-04 0.382D-03-0.739D-03
 Coeff:     -0.102D-03 0.207D-02-0.499D-02 0.479D-02 0.224D-01-0.124D+00
 Coeff:      0.413D+00-0.944D+00 0.151D+01-0.209D+01 0.221D+01
 Gap=     0.594 Goal=   None    Shift=    0.000
 Gap=     0.592 Goal=   None    Shift=    0.000
 RMSDP=3.41D-07 MaxDP=2.33D-06 DE=-1.35D-11 OVMax= 0.00D+00

 Cycle  18  Pass 1  IDiag  1:
 E= -165.456747338087     Delta-E=       -0.000000000005 Rises=F Damp=F
 DIIS: error= 1.20D-07 at cycle  18 NSaved=  18.
 NSaved=18 IEnMin=18 EnMin= -165.456747338087     IErMin=18 ErrMin= 1.20D-07
 ErrMax= 1.20D-07  0.00D+00 EMaxC= 1.00D-01 BMatC= 7.35D-13 BMatP= 1.53D-12
 IDIUse=1 WtCom= 1.00D+00 WtEn= 0.00D+00
 Large coefficients: NSaved= 18 BigCof=    0.00 CofMax=   10.00 Det=-8.61D-15
 Inversion failed.  Reducing to 17 matrices.
 Coeff-Com: -0.200D-04 0.575D-04 0.159D-04-0.276D-03 0.390D-03 0.140D-03
 Coeff-Com: -0.125D-02 0.248D-02-0.684D-03-0.158D-01 0.695D-01-0.244D+00
 Coeff-Com:  0.623D+00-0.111D+01 0.195D+01-0.298D+01 0.270D+01
 Coeff:     -0.200D-04 0.575D-04 0.159D-04-0.276D-03 0.390D-03 0.140D-03
 Coeff:     -0.125D-02 0.248D-02-0.684D-03-0.158D-01 0.695D-01-0.244D+00
 Coeff:      0.623D+00-0.111D+01 0.195D+01-0.298D+01 0.270D+01
 Gap=     0.594 Goal=   None    Shift=    0.000
 Gap=     0.592 Goal=   None    Shift=    0.000
 RMSDP=2.37D-07 MaxDP=2.11D-06 DE=-4.77D-12 OVMax= 0.00D+00

 Cycle  19  Pass 1  IDiag  1:
 E= -165.456747338091     Delta-E=       -0.000000000003 Rises=F Damp=F
 DIIS: error= 9.58D-08 at cycle  19 NSaved=  18.
 NSaved=18 IEnMin=18 EnMin= -165.456747338091     IErMin=18 ErrMin= 9.58D-08
 ErrMax= 9.58D-08  0.00D+00 EMaxC= 1.00D-01 BMatC= 3.84D-13 BMatP= 7.35D-13
 IDIUse=1 WtCom= 1.00D+00 WtEn= 0.00D+00
 Large coefficients: NSaved= 18 BigCof=    0.00 CofMax=   10.00 Det=-3.45D-15
 Inversion failed.  Reducing to 17 matrices.
 Large coefficients: NSaved= 17 BigCof=    0.00 CofMax=   10.00 Det=-4.80D-15
 Inversion failed.  Reducing to 16 matrices.
 Large coefficients: NSaved= 16 BigCof=    0.00 CofMax=   10.00 Det=-6.66D-15
 Inversion failed.  Reducing to 15 matrices.
 Coeff-Com:  0.245D-04-0.404D-05 0.437D-04-0.258D-03 0.668D-03-0.222D-02
 Coeff-Com:  0.174D-02 0.115D-01-0.371D-01 0.450D-01 0.386D-01-0.718D+00
 Coeff-Com:  0.233D+01-0.433D+01 0.366D+01
 Coeff:      0.245D-04-0.404D-05 0.437D-04-0.258D-03 0.668D-03-0.222D-02
 Coeff:      0.174D-02 0.115D-01-0.371D-01 0.450D-01 0.386D-01-0.718D+00
 Coeff:      0.233D+01-0.433D+01 0.366D+01
 Gap=     0.594 Goal=   None    Shift=    0.000
 Gap=     0.592 Goal=   None    Shift=    0.000
 RMSDP=3.68D-07 MaxDP=3.42D-06 DE=-3.35D-12 OVMax= 0.00D+00

 Cycle  20  Pass 1  IDiag  1:
 E= -165.456747338094     Delta-E=       -0.000000000003 Rises=F Damp=F
 DIIS: error= 4.78D-08 at cycle  20 NSaved=  16.
 NSaved=16 IEnMin=16 EnMin= -165.456747338094     IErMin=16 ErrMin= 4.78D-08
 ErrMax= 4.78D-08  0.00D+00 EMaxC= 1.00D-01 BMatC= 1.39D-13 BMatP= 3.84D-13
 IDIUse=1 WtCom= 1.00D+00 WtEn= 0.00D+00
 Large coefficients: NSaved= 16 BigCof=    0.00 CofMax=   10.00 Det=-2.60D-15
 Inversion failed.  Reducing to 15 matrices.
 Coeff-Com: -0.567D-04-0.617D-04 0.498D-03-0.118D-02 0.221D-02 0.256D-02
 Coeff-Com: -0.213D-01 0.506D-01-0.474D-01-0.832D-02 0.404D+00-0.156D+01
 Coeff-Com:  0.344D+01-0.395D+01 0.268D+01
 Coeff:     -0.567D-04-0.617D-04 0.498D-03-0.118D-02 0.221D-02 0.256D-02
 Coeff:     -0.213D-01 0.506D-01-0.474D-01-0.832D-02 0.404D+00-0.156D+01
 Coeff:      0.344D+01-0.395D+01 0.268D+01
 Gap=     0.594 Goal=   None    Shift=    0.000
 Gap=     0.592 Goal=   None    Shift=    0.000
 RMSDP=3.16D-07 MaxDP=2.78D-06 DE=-3.01D-12 OVMax= 0.00D+00

 Cycle  21  Pass 1  IDiag  1:
 E= -165.456747338095     Delta-E=       -0.000000000001 Rises=F Damp=F
 DIIS: error= 2.94D-08 at cycle  21 NSaved=  16.
 NSaved=16 IEnMin=16 EnMin= -165.456747338095     IErMin=16 ErrMin= 2.94D-08
 ErrMax= 2.94D-08  0.00D+00 EMaxC= 1.00D-01 BMatC= 3.67D-14 BMatP= 1.39D-13
 IDIUse=1 WtCom= 1.00D+00 WtEn= 0.00D+00
 Large coefficients: NSaved= 16 BigCof=    0.00 CofMax=   10.00 Det=-7.05D-16
 Inversion failed.  Reducing to 15 matrices.
 Coeff-Com:  0.635D-05-0.421D-04 0.624D-04 0.146D-04-0.632D-03 0.131D-02
 Coeff-Com: -0.954D-03-0.858D-02 0.103D-01-0.560D-02 0.114D+00-0.417D+00
 Coeff-Com:  0.650D+00-0.734D+00 0.139D+01
 Coeff:      0.635D-05-0.421D-04 0.624D-04 0.146D-04-0.632D-03 0.131D-02
 Coeff:     -0.954D-03-0.858D-02 0.103D-01-0.560D-02 0.114D+00-0.417D+00
 Coeff:      0.650D+00-0.734D+00 0.139D+01
 Gap=     0.594 Goal=   None    Shift=    0.000
 Gap=     0.592 Goal=   None    Shift=    0.000
 RMSDP=5.53D-08 MaxDP=3.83D-07 DE=-1.14D-12 OVMax= 0.00D+00

 Cycle  22  Pass 1  IDiag  1:
 E= -165.456747338095     Delta-E=        0.000000000000 Rises=F Damp=F
 DIIS: error= 2.41D-09 at cycle  22 NSaved=  16.
 NSaved=16 IEnMin=16 EnMin= -165.456747338095     IErMin=16 ErrMin= 2.41D-09
 ErrMax= 2.41D-09  0.00D+00 EMaxC= 1.00D-01 BMatC= 4.92D-16 BMatP= 3.67D-14
 IDIUse=1 WtCom= 1.00D+00 WtEn= 0.00D+00
 Large coefficients: NSaved= 16 BigCof=    0.00 CofMax=   10.00 Det=-3.70D-16
 Inversion failed.  Reducing to 15 matrices.
 Coeff-Com:  0.198D-05 0.179D-05-0.511D-04 0.184D-03-0.173D-04-0.126D-02
 Coeff-Com:  0.663D-02-0.721D-02-0.919D-02 0.931D-02 0.284D-01-0.779D-01
 Coeff-Com:  0.157D+00-0.628D+00 0.152D+01
 Coeff:      0.198D-05 0.179D-05-0.511D-04 0.184D-03-0.173D-04-0.126D-02
 Coeff:      0.663D-02-0.721D-02-0.919D-02 0.931D-02 0.284D-01-0.779D-01
 Coeff:      0.157D+00-0.628D+00 0.152D+01
 Gap=     0.594 Goal=   None    Shift=    0.000
 Gap=     0.592 Goal=   None    Shift=    0.000
 RMSDP=4.13D-09 MaxDP=3.08D-08 DE=-2.84D-13 OVMax= 0.00D+00

 SCF Done:  E(UHF) =  -165.456747338     A.U. after   22 cycles
            NFock= 22  Conv=0.41D-08     -V/T= 2.0077
 <Sx>= 0.0000 <Sy>= 0.0000 <Sz>= 1.0000 <S**2>= 2.2537 S= 1.0823
 <L.S>= 0.000000000000E+00
 KE= 1.641880663647D+02 PE=-5.017396090139D+02 EE= 1.162988000299D+02
 Annihilation of the first spin contaminant:
 S**2 before annihilation     2.2537,   after     2.0053
 Leave Link  502 at Fri Apr 15 18:54:09 2022, MaxMem=   131072000 cpu:               0.0 elap:               0.1
 (Enter C:\G16W\l801.exe)
 Range of M.O.s used for correlation:     1    16
 NBasis=    16 NAE=    12 NBE=    10 NFC=     0 NFV=     0
 NROrb=     16 NOA=    12 NOB=    10 NVA=     4 NVB=     6
 Leave Link  801 at Fri Apr 15 18:54:09 2022, MaxMem=   131072000 cpu:               0.0 elap:               0.0
 (Enter C:\G16W\l1101.exe)
 Using compressed storage, NAtomX=     4.
 Will process      5 centers per pass.
 Leave Link 1101 at Fri Apr 15 18:54:09 2022, MaxMem=   131072000 cpu:               0.0 elap:               0.0
 (Enter C:\G16W\l1102.exe)
 Symmetrizing basis deriv contribution to polar:
 IMax=3 JMax=2 DiffMx= 0.00D+00
 Leave Link 1102 at Fri Apr 15 18:54:09 2022, MaxMem=   131072000 cpu:               0.0 elap:               0.0
 (Enter C:\G16W\l1110.exe)
 Forming Gx(P) for the SCF density, NAtomX=     4.
 Integral derivatives from FoFJK, PRISM(SPDF).
 Do as many integral derivatives as possible in FoFJK.
 G2DrvN: MDV=     131071592.
 G2DrvN: will do     5 centers at a time, making    1 passes.
 Calling FoFCou, ICntrl=  3107 FMM=F I1Cent=   0 AccDes= 0.00D+00.
 FoFJK:  IHMeth= 1 ICntrl=    3107 DoSepK=F KAlg= 0 I1Cent=           0 FoldK=F
 IRaf=         0 NMat=       1 IRICut=       1 DoRegI=T DoRafI=F ISym2E= 0 IDoP0=0 IntGTp=1.
 FoFCou: FMM=F IPFlag=           0 FMFlag=      100000 FMFlg1=           0
         NFxFlg=           0 DoJE=F BraDBF=F KetDBF=F FulRan=T
         wScrn=  0.000000 ICntrl=      3107 IOpCl=  1 I1Cent=           0 NGrid=           0
         NMat0=    1 NMatS0=      1 NMatT0=    0 NMatD0=    1 NMtDS0=    0 NMtDT0=    0
 Symmetry not used in FoFCou.
 End of G2Drv F.D. properties file   721 does not exist.
 End of G2Drv F.D. properties file   722 does not exist.
 End of G2Drv F.D. properties file   788 does not exist.
 Leave Link 1110 at Fri Apr 15 18:54:09 2022, MaxMem=   131072000 cpu:               0.0 elap:               0.1
 (Enter C:\G16W\l1002.exe)
 Minotr:  UHF open shell wavefunction.
          IDoAtm=1111
          Direct CPHF calculation.
          Differentiating once with respect to electric field.
                with respect to dipole field.
          Differentiating once with respect to nuclear coordinates.
          Requested convergence is 1.0D-08 RMS, and 1.0D-07 maximum.
          Secondary convergence is 1.0D-12 RMS, and 1.0D-12 maximum.
          NewPWx=T KeepS1=F KeepF1=F KeepIn=T MapXYZ=F SortEE=F KeepMc=T.
 Keep R1 and R2 ints in memory in canonical form, NReq=824015.
 FoFCou: FMM=F IPFlag=           0 FMFlag=           0 FMFlg1=           0
         NFxFlg=           0 DoJE=F BraDBF=F KetDBF=F FulRan=T
         wScrn=  0.000000 ICntrl=       600 IOpCl=  0 I1Cent=           0 NGrid=           0
         NMat0=    1 NMatS0=    136 NMatT0=    0 NMatD0=    1 NMtDS0=    0 NMtDT0=    0
 Symmetry not used in FoFCou.
 Two-electron integral symmetry not used.
          MDV=     131072000 using IRadAn=       1.
          Solving linear equations simultaneously, MaxMat=       0.
          There are    15 degrees of freedom in the 1st order CPHF.  IDoFFX=6 NUNeed=     3.
     12 vectors produced by pass  0 Test12= 7.20D-16 6.67D-09 XBig12= 1.10D+01 1.93D+00.
 AX will form    12 AO Fock derivatives at one time.
     12 vectors produced by pass  1 Test12= 7.20D-16 6.67D-09 XBig12= 5.61D-01 2.87D-01.
     12 vectors produced by pass  2 Test12= 7.20D-16 6.67D-09 XBig12= 1.75D-02 4.04D-02.
     12 vectors produced by pass  3 Test12= 7.20D-16 6.67D-09 XBig12= 2.19D-04 5.08D-03.
     12 vectors produced by pass  4 Test12= 7.20D-16 6.67D-09 XBig12= 2.13D-06 4.30D-04.
     12 vectors produced by pass  5 Test12= 7.20D-16 6.67D-09 XBig12= 1.30D-08 3.18D-05.
     12 vectors produced by pass  6 Test12= 7.20D-16 6.67D-09 XBig12= 5.25D-11 3.15D-06.
      6 vectors produced by pass  7 Test12= 7.20D-16 6.67D-09 XBig12= 1.34D-13 1.61D-07.
      1 vectors produced by pass  8 Test12= 7.20D-16 6.67D-09 XBig12= 1.25D-15 1.59D-08.
 InvSVY:  IOpt=1 It=  1 EMax= 7.77D-16
 Solved reduced A of dimension    91 with    12 vectors.
 FullF1:  Do perturbations      1 to       3.
 Isotropic polarizability for W=    0.000000       10.36 Bohr**3.
 End of Minotr F.D. properties file   721 does not exist.
 End of Minotr F.D. properties file   722 does not exist.
 End of Minotr F.D. properties file   788 does not exist.
 Leave Link 1002 at Fri Apr 15 18:54:09 2022, MaxMem=   131072000 cpu:               0.0 elap:               0.1
 (Enter C:\G16W\l601.exe)
 Copying SCF densities to generalized density rwf, IOpCl= 1 IROHF=0.

 **********************************************************************

            Population analysis using the SCF density.

 **********************************************************************

 Orbital symmetries:
 Alpha Orbitals:
       Occupied  (A) (A) (A) (A) (A) (A) (A) (A) (A) (A) (A) (A)
       Virtual   (A) (A) (A) (A)
 Beta  Orbitals:
       Occupied  (A) (A) (A) (A) (A) (A) (A) (A) (A) (A)
       Virtual   (A) (A) (A) (A) (A) (A)
 The electronic state is 3-A.
 Alpha  occ. eigenvalues --  -20.38630 -15.40391 -11.08557  -1.41534  -1.19025
 Alpha  occ. eigenvalues --   -0.73172  -0.64584  -0.59500  -0.56995  -0.49356
 Alpha  occ. eigenvalues --   -0.47148  -0.27380
 Alpha virt. eigenvalues --    0.32049   0.54660   0.72701   0.94407
  Beta  occ. eigenvalues --  -20.35899 -15.37620 -11.08035  -1.30565  -1.06406
  Beta  occ. eigenvalues --   -0.68268  -0.55089  -0.45698  -0.42723  -0.38820
  Beta virt. eigenvalues --    0.20349   0.27303   0.43237   0.58738   0.75866
  Beta virt. eigenvalues --    1.02013
          Condensed to atoms (all electrons):
               1          2          3          4
     1  H    0.558104   0.306211  -0.042828   0.001086
     2  N    0.306211   6.588366   0.330628  -0.014869
     3  C   -0.042828   0.330628   5.193072   0.370725
     4  O    0.001086  -0.014869   0.370725   7.758552
          Atomic-Atomic Spin Densities.
               1          2          3          4
     1  H   -0.048397  -0.008975  -0.008859   0.000073
     2  N   -0.008975   1.194013  -0.053419   0.000906
     3  C   -0.008859  -0.053419   0.186186  -0.118453
     4  O    0.000073   0.000906  -0.118453   1.045653
 Mulliken charges and spin densities:
               1          2
     1  H    0.177427  -0.066159
     2  N   -0.210335   1.132525
     3  C    0.148403   0.005456
     4  O   -0.115494   0.928178
 Sum of Mulliken charges =   0.00000   2.00000
 Mulliken charges and spin densities with hydrogens summed into heavy atoms:
               1          2
     2  N   -0.032909   1.066366
     3  C    0.148403   0.005456
     4  O   -0.115494   0.928178
 APT charges:
               1
     1  H    0.192388
     2  N   -0.106384
     3  C   -0.156481
     4  O    0.070477
 Sum of APT charges =   0.00000
 APT charges with hydrogens summed into heavy atoms:
               1
     2  N    0.086004
     3  C   -0.156481
     4  O    0.070477
 Electronic spatial extent (au):  <R**2>=            127.7428
 Charge=              0.0000 electrons
 Dipole moment (field-independent basis, Debye):
    X=              1.1113    Y=              1.2262    Z=              0.0105  Tot=              1.6549
 Quadrupole moment (field-independent basis, Debye-Ang):
   XX=            -15.1152   YY=            -15.7648   ZZ=            -13.9966
   XY=              2.1280   XZ=              0.0190   YZ=              0.0037
 Traceless Quadrupole moment (field-independent basis, Debye-Ang):
   XX=             -0.1564   YY=             -0.8059   ZZ=              0.9623
   XY=              2.1280   XZ=              0.0190   YZ=              0.0037
 Octapole moment (field-independent basis, Debye-Ang**2):
  XXX=              1.9662  YYY=             -0.6879  ZZZ=              0.0095  XYY=             -1.5433
  XXY=              3.7162  XXZ=              0.0229  XZZ=             -1.6419  YZZ=             -0.3799
  YYZ=              0.0113  XYZ=              0.0053
 Hexadecapole moment (field-independent basis, Debye-Ang**3):
 XXXX=            -98.9896 YYYY=            -17.1838 ZZZZ=             -8.8267 XXXY=              6.8420
 XXXZ=              0.0580 YYYX=              1.9332 YYYZ=              0.0053 ZZZX=             -0.0029
 ZZZY=              0.0018 XXYY=            -20.0684 XXZZ=            -17.9399 YYZZ=             -4.2680
 XXYZ=              0.0079 YYXZ=              0.0061 ZZXY=              0.3278
 N-N= 5.579599528119D+01 E-N=-5.017396090234D+02  KE= 1.641880663647D+02
  Exact polarizability:  18.435   2.120   5.851   0.006  -0.021   6.798
 Approx polarizability:  17.805   1.900   5.384  -0.001   0.002   2.783
                          Isotropic Fermi Contact Couplings
        Atom                 a.u.       MegaHertz       Gauss      10(-4) cm-1
     1  H(1)              -0.01954     -43.67518     -15.58439     -14.56847
     2  N(14)              0.12927      20.88368       7.45182       6.96605
     3  C(13)              0.22508     126.51669      45.14430      42.20143
     4  O(17)              0.12334     -37.38517     -13.33996     -12.47035
 --------------------------------------------------------
       Center         ----  Spin Dipole Couplings  ----
                      3XX-RR        3YY-RR        3ZZ-RR
 --------------------------------------------------------
     1   Atom        0.039633      0.027258     -0.066891
     2   Atom       -0.659233     -0.617102      1.276334
     3   Atom        0.024983      0.965878     -0.990861
     4   Atom       -1.316980     -0.172352      1.489333
 --------------------------------------------------------
                        XY            XZ            YZ
 --------------------------------------------------------
     1   Atom        0.128998      0.001139      0.001001
     2   Atom       -0.287150     -0.007977     -0.012970
     3   Atom        0.051972     -0.000753      0.002784
     4   Atom        0.141807      0.012858     -0.013861
 --------------------------------------------------------


 ---------------------------------------------------------------------------------
              Anisotropic Spin Dipole Couplings in Principal Axis System
 ---------------------------------------------------------------------------------

       Atom             a.u.   MegaHertz   Gauss  10(-4) cm-1        Axes

              Baa    -0.0957   -51.062   -18.220   -17.032 -0.6900  0.7238  0.0021
     1 H(1)   Bbb    -0.0669   -35.695   -12.737   -11.907 -0.0033 -0.0061  1.0000
              Bcc     0.1626    86.757    30.957    28.939  0.7238  0.6899  0.0066
 
              Baa    -0.9262   -35.721   -12.746   -11.915  0.7325  0.6808  0.0067
     2 N(14)  Bbb    -0.3503   -13.509    -4.820    -4.506 -0.6808  0.7325  0.0025
              Bcc     1.2764    49.230    17.566    16.421 -0.0032 -0.0064  1.0000
 
              Baa    -0.9909  -132.965   -47.445   -44.352  0.0008 -0.0014  1.0000
     3 C(13)  Bbb     0.0221     2.969     1.059     0.990  0.9985 -0.0550 -0.0009
              Bcc     0.9687   129.996    46.386    43.362  0.0550  0.9985  0.0014
 
              Baa    -1.3344    96.553    34.453    32.207  0.9926 -0.1212 -0.0051
     4 O(17)  Bbb    -0.1551    11.226     4.006     3.744  0.1212  0.9926  0.0074
              Bcc     1.4895  -107.779   -38.458   -35.951  0.0042 -0.0080  1.0000
 

 ---------------------------------------------------------------------------------

 No NMR shielding tensors so no spin-rotation constants.
 Leave Link  601 at Fri Apr 15 18:54:10 2022, MaxMem=   131072000 cpu:               1.0 elap:               0.1
 (Enter C:\G16W\l701.exe)
 SCFChk:  SCF convergence  4.13D-09 required  1.00D-08
 ... and contract with generalized density number  0.
 Compute integral second derivatives.
 Entering OneElI...
 Calculate overlap and kinetic energy integrals
    NBasis =  16  MinDer = 2  MaxDer = 2
 Requested accuracy = 0.1000D-12
 PrmmSu-InSpLW:  IPartL=    0 NPrtUS=    1 NPrtUL=    1 DoSpLW=F IThBeg=    0 IThEnd=    0 NThAct=    1.
 PrsmSu:  NPrtUS=   1 ThrOK=F IAlg=1 NPAlg=1 LenDen=           0 ISkipM=0 DoSpLW=F IThBeg=    0 IThEnd=    0.
 Prism:   IPart=     0 DynPar=F LinDyn=F Incr=           1.
 PRISM was handed   131065534 working-precision words and    28 shell-pairs
 IPart=  0 NShTot=          28 NBatch=           8 AvBLen=         3.5
 PrSmSu:  NxtVal=              2.
 Entering OneElI...
 Calculate potential energy integrals
    NBasis =  16  MinDer = 2  MaxDer = 2
 Requested accuracy = 0.1000D-12
 PrmmSu-InSpLW:  IPartL=    0 NPrtUS=    1 NPrtUL=    1 DoSpLW=F IThBeg=    0 IThEnd=    0 NThAct=    1.
 PrsmSu:  NPrtUS=   1 ThrOK=F IAlg=1 NPAlg=1 LenDen=           0 ISkipM=0 DoSpLW=F IThBeg=    0 IThEnd=    0.
 Prism:   IPart=     0 DynPar=F LinDyn=F Incr=           1.
 PRISM was handed   131065828 working-precision words and    27 shell-pairs
 IPart=  0 NShTot=         108 NBatch=          27 AvBLen=         4.0
 PrSmSu:  NxtVal=              2.
 Polarizability after L701:
                1             2             3 
      1  0.184355D+02
      2  0.211971D+01  0.585108D+01
      3  0.631097D-02 -0.212391D-01  0.679762D+01
 Dipole Derivatives after L701:
                 1             2             3             4             5 
      1   0.231559D+00 -0.159084D+00 -0.128211D-02  0.162999D-01  0.994209D-01
      2  -0.876985D-01  0.218450D-01 -0.302938D-02 -0.139312D-01 -0.813782D-02
      3  -0.106606D-02 -0.228429D-02  0.323761D+00  0.193009D-04  0.214412D-02
                 6             7             8             9            10 
      1   0.158535D-02 -0.620411D+00 -0.112592D+00  0.727172D-03  0.372553D+00
      2   0.364093D-02  0.788456D-01  0.142265D+00  0.290111D-04  0.227842D-01
      3  -0.327314D+00  0.303945D-02  0.228212D-02  0.870379D-02 -0.199269D-02
                11            12 
      1   0.172256D+00 -0.103041D-02
      2  -0.155972D+00 -0.640561D-03
      3  -0.214195D-02 -0.515095D-02
 Hessian after L701:
                1             2             3             4             5 
      1  0.175768D+01
      2 -0.891730D+00  0.168111D+01
      3 -0.788127D-02 -0.844733D-02  0.245409D+01
      4 -0.167621D+01  0.749801D+00  0.781895D-02  0.687811D+00
      5  0.918834D+00 -0.176404D+01  0.857133D-02  0.141857D+01  0.655429D+01
      6  0.909974D-02  0.797959D-02 -0.248094D+01 -0.137680D-01 -0.622915D-02
      7 -0.195088D+00  0.623088D-01 -0.523843D-03  0.107642D+00 -0.218448D+01
      8 -0.744431D-01  0.973450D-01 -0.432663D-03 -0.200216D+01 -0.433356D+01
      9 -0.152211D-02  0.371777D-03  0.530728D-01  0.729655D-02 -0.245924D-02
     10  0.113622D+00  0.796197D-01  0.586160D-03  0.880759D+00 -0.152924D+00
     11  0.473389D-01 -0.144146D-01  0.308666D-03 -0.166203D+00 -0.456698D+00
     12  0.303646D-03  0.959630D-04 -0.262237D-01 -0.134752D-02  0.117059D-03
                6             7             8             9            10 
      6  0.877454D+01
      7  0.614985D-02 -0.699968D+00
      8 -0.163220D-02 -0.937359D+00  0.111268D+02
      9 -0.573920D+01  0.162319D-01  0.113673D-01  0.146413D+02
     10 -0.148160D-02  0.787414D+00  0.301397D+01 -0.220063D-01 -0.178179D+01
     11 -0.118240D-03  0.305953D+01 -0.689058D+01 -0.927984D-02 -0.294066D+01
     12 -0.554410D+00 -0.218579D-01 -0.930243D-02 -0.895523D+01  0.229018D-01
               11            12 
     11  0.736169D+01
     12  0.908941D-02  0.953586D+01
 Leave Link  701 at Fri Apr 15 18:54:10 2022, MaxMem=   131072000 cpu:               0.0 elap:               0.1
 (Enter C:\G16W\l702.exe)
 L702 exits ... SP integral derivatives will be done elsewhere.
 Leave Link  702 at Fri Apr 15 18:54:10 2022, MaxMem=   131072000 cpu:               0.0 elap:               0.0
 (Enter C:\G16W\l703.exe)
 Integral derivatives from FoFJK, PRISM(SPDF).
 Compute integral second derivatives, UseDBF=F ICtDFT=           0.
 ICntrl=    100127.
 Calling FoFJK, ICntrl=    100127 FMM=F ISym2X=0 I1Cent= 0 IOpClX= 1 NMat=1 NMatS=1 NMatT=0.
 FoFJK:  IHMeth= 1 ICntrl=  100127 DoSepK=F KAlg= 0 I1Cent=           0 FoldK=F
 IRaf=         0 NMat=       1 IRICut=       1 DoRegI=T DoRafI=F ISym2E= 0 IDoP0=0 IntGTp=1.
 FoFCou: FMM=F IPFlag=           0 FMFlag=      100000 FMFlg1=         800
         NFxFlg=           0 DoJE=F BraDBF=F KetDBF=F FulRan=T
         wScrn=  0.000000 ICntrl=    100127 IOpCl=  1 I1Cent=           0 NGrid=           0
         NMat0=    1 NMatS0=      1 NMatT0=    0 NMatD0=    1 NMtDS0=    0 NMtDT0=    0
 Symmetry not used in FoFCou.
 FoFCou:  KetSym=F NOpSet=  1 NOpAb=1 NOp=  1.
 FoFCou:  CnvScl= 1.00D+00 Thresh= 1.00D-12 IAcrcy=      10.
 PrismS was handed   131065893 working-precision words and    27 shell-pairs
 FoFCou: LinMIO=F DoNuc=F BraDBF=F KetDBF=F HaveP=T PDBF=F HaveZ=T HaveW=F
         NIJTC =       3 NIJTAt=       0 NIJTCD=       0 NIJTT =       3
         IJTBeg=       1 IJTEnd=       3 KLTBeg=       1 KLTEnd=       3
         IPTBeg=       1 IPTEnd=       3 IPTBCv=       1 IPTECv=       3
         IZTBeg=       1 IZTEnd=       3 IZTBCv=       1 IZTECv=       3
         IWTBeg=       4 IWTEnd=       3 IWTBCv=       4 IWTECv=       3
         INTBeg=       1 INTEnd=       0 IFTBCv=       1 IFTECv=       3
 NCel replicated for PrismC:     1
 CoulSu-InSpLW:  IPartL=    0 NPrtUS=    1 NPrtUL=    1 DoSpLW=F IThBeg=    0 IThEnd=    0 NThAct=    1.
 CoulSu:  IncDef=  1024 NBBP=            378 NTPThr=   100 NPartT=    1 Incr=           3 LDynOK=F GPUOK=T.
 CoulSu:  NPrtUS=   1 ThrOK=F IAlg=1 NPAlg=1 LenDen=           0 LWGrdD=           0 DoCopy=F ISkipM=0
          DoSpLW=F IThBeg=    0 IThEnd=    0.
 Enter PrismC:  IPart=  0 JobTyp=22 DoJE=F Cont=F.
 PrismC:  IPart=     0 DynPar=F LinDyn=F Incr=           3 UseFst=F UseS4=T ISplat=2.
 PrismC was handed   131065804 working-precision words and    27 shell-pairs
 IPart=  0 NShTot=         376 NShNF=         376 NShFF=           0 MinMC=      10
           NShCPU=         376 NBCPU=          31 AvBCPU=        12.1
           NShGPU=           0 NBGPU=           0 AvBGPU=         0.0
 CoulSu:  NxtVal=              4 LenVP=      131065805 MinMC=      10.
 Polarizability after L703:
                1             2             3 
      1  0.184355D+02
      2  0.211971D+01  0.585108D+01
      3  0.631097D-02 -0.212391D-01  0.679762D+01
 Dipole Derivatives after L703:
                 1             2             3             4             5 
      1   0.231559D+00 -0.159084D+00 -0.128211D-02  0.162999D-01  0.994209D-01
      2  -0.876985D-01  0.218450D-01 -0.302938D-02 -0.139312D-01 -0.813782D-02
      3  -0.106606D-02 -0.228429D-02  0.323761D+00  0.193009D-04  0.214412D-02
                 6             7             8             9            10 
      1   0.158535D-02 -0.620411D+00 -0.112592D+00  0.727172D-03  0.372553D+00
      2   0.364093D-02  0.788456D-01  0.142265D+00  0.290111D-04  0.227842D-01
      3  -0.327314D+00  0.303945D-02  0.228212D-02  0.870379D-02 -0.199269D-02
                11            12 
      1   0.172256D+00 -0.103041D-02
      2  -0.155972D+00 -0.640561D-03
      3  -0.214195D-02 -0.515095D-02
 Hessian after L703:
                1             2             3             4             5 
      1  0.289639D+00
      2  0.235108D+00  0.304642D+00
      3  0.228677D-02  0.240790D-02  0.587183D-02
      4 -0.252217D+00 -0.283034D+00 -0.251133D-02  0.593936D+00
      5 -0.197155D+00 -0.313521D+00 -0.211665D-02  0.143071D+00  0.423730D+00
      6 -0.206244D-02 -0.257669D-02 -0.134022D-02  0.277209D-02  0.230588D-02
      7 -0.305227D-01  0.455353D-01  0.314388D-03 -0.111099D+00 -0.219386D-01
      8 -0.434283D-01  0.126308D-01 -0.403024D-03  0.197143D+00 -0.184455D+00
      9 -0.203279D-03  0.204518D-03 -0.122300D-01 -0.568442D-03 -0.134784D-03
     10 -0.689977D-02  0.239100D-02 -0.898307D-04 -0.230619D+00  0.760229D-01
     11  0.547549D-02 -0.375182D-02  0.111776D-03 -0.571793D-01  0.742462D-01
     12 -0.210552D-04 -0.357255D-04  0.769843D-02  0.307682D-03 -0.544415D-04
                6             7             8             9            10 
      6 -0.238673D-01
      7 -0.560511D-03  0.450309D+00
      8  0.466725D-03  0.124907D+00  0.347842D+00
      9  0.394975D-01 -0.715538D-03 -0.601281D-03 -0.526781D-01
     10 -0.149139D-03 -0.308687D+00 -0.278621D+00  0.148726D-02  0.546206D+00
     11 -0.195909D-03 -0.148504D+00 -0.176017D+00  0.531547D-03  0.200208D+00
     12 -0.142900D-01  0.961662D-03  0.537580D-03  0.254106D-01 -0.124829D-02
               11            12 
     11  0.105523D+00
     12 -0.447413D-03 -0.188191D-01
 Leave Link  703 at Fri Apr 15 18:54:10 2022, MaxMem=   131072000 cpu:               0.0 elap:               0.1
 (Enter C:\G16W\l716.exe)
 FrcOut:
 IF    =        44 IFX   =        56 IFXYZ =        68
 IFFX  =        80 IFFFX =       158 IFLen =        12
 IFFLen=        78 IFFFLn=         0 IEDerv=       158
 LEDerv=       629 IFroze=       957 ICStrt=      1554
 Dipole        = 4.37211460D-01 4.82412223D-01 4.11290080D-03
 DipoleDeriv   = 2.31558527D-01-8.76985151D-02-1.06606118D-03
                -1.59084362D-01 2.18449680D-02-2.28428896D-03
                -1.28210815D-03-3.02938263D-03 3.23761001D-01
                 1.62998819D-02-1.39312176D-02 1.93009003D-05
                 9.94208795D-02-8.13781695D-03 2.14411729D-03
                 1.58534741D-03 3.64093212D-03-3.27313848D-01
                -6.20411369D-01 7.88455773D-02 3.03944782D-03
                -1.12592284D-01 1.42264873D-01 2.28211885D-03
                 7.27171835D-04 2.90110636D-05 8.70379238D-03
                 3.72552960D-01 2.27841554D-02-1.99268754D-03
                 1.72255766D-01-1.55972024D-01-2.14194718D-03
                -1.03041109D-03-6.40560547D-04-5.15094509D-03
 Polarizability= 1.84354654D+01 2.11971251D+00 5.85107528D+00
                 6.31096585D-03-2.12390698D-02 6.79762266D+00
 HyperPolar    =-1.15460804D+01 1.72580379D+01-1.15433844D-01
                 1.77056160D+01 2.69399568D-01-4.89150494D-02
                -5.25041570D-01-3.21454736D+00 2.97610905D+01
                 5.61247670D-01
 Quadrupole    =-1.16248272D-01-5.99190469D-01 7.15438740D-01
                 1.58211502D+00 1.41371898D-02 2.71446045D-03
 VibFq2-Diag1:  N=     12 IV=           5 MDV=   131069602 NE2=    10922466
 Full mass-weighted force constant matrix:
 Low frequencies --- -457.0925 -182.6963 -151.7927   -0.0006    0.0004    0.0005
 Low frequencies ---  439.4799  517.3454 1039.7764
 OrtVCM:  Ph=1 IPass= 1 DotMx1= 0.00D+00
 OrtVCM:  IS=    1 I=    1 IndO=    1 Dot= 1.00D+00 DotN= 1.00D+00 ElMax1= 6.10D-01 ElMax1N= 6.10D-01
 OrtVCM:  Ph=2 NNew=    0 IAdd=    2 IPass= 1 DotMx2= 0.00D+00
 OrtVCM:  IS=    1 I=    2 IndO=    2 Dot= 1.00D+00 DotN= 1.00D+00 ElMax1= 6.10D-01 ElMax1N= 6.10D-01
 OrtVCM:  Ph=2 NNew=    0 IAdd=    3 IPass= 1 DotMx2= 0.00D+00
 OrtVCM:  IS=    1 I=    3 IndO=    3 Dot= 1.00D+00 DotN= 1.00D+00 ElMax1= 6.10D-01 ElMax1N= 6.10D-01
 OrtVCM:  Ph=2 NNew=    0 IAdd=    4 IPass= 1 DotMx2= 5.55D-17
 OrtVCM:  IS=    1 I=    4 IndO=    4 Dot= 1.00D+00 DotN= 1.00D+00 ElMax1= 7.46D-01 ElMax1N= 7.46D-01
 OrtVCM:  Ph=2 NNew=    0 IAdd=    5 IPass= 1 DotMx2= 1.19D-15
 OrtVCM:  IS=    1 I=    5 IndO=    5 Dot= 1.00D+00 DotN= 1.00D+00 ElMax1= 6.86D-01 ElMax1N= 6.86D-01
 OrtVCM:  Ph=2 NNew=    0 IAdd=    6 IPass= 1 DotMx2= 5.55D-17
 OrtVCM:  IS=    1 I=    6 IndO=    6 Dot= 1.00D+00 DotN= 1.00D+00 ElMax1= 6.69D-01 ElMax1N= 6.69D-01
 OrtVCM:  Ph=1 IPass= 1 DotMx1= 6.71D-01
 OrtVCM:  Ph=1 IPass= 2 DotMx1= 2.35D-16
 OrtVCM:  IS=    1 I=    1 IndO=    7 Dot= 9.70D-01 DotN= 9.70D-01 ElMax1= 9.70D-01 ElMax1N= 9.70D-01
 OrtVCM:  Ph=2 NNew=    0 IAdd=    2 IPass= 1 DotMx2= 2.21D-02
 OrtVCM:  Ph=2 NNew=    0 IAdd=    2 IPass= 2 DotMx2= 1.21D-17
 OrtVCM:  IS=    1 I=    2 IndO=    8 Dot= 9.00D-01 DotN= 9.00D-01 ElMax1= 9.00D-01 ElMax1N= 9.00D-01
 OrtVCM:  Ph=2 NNew=    0 IAdd=    3 IPass= 1 DotMx2= 1.66D-03
 OrtVCM:  Ph=2 NNew=    0 IAdd=    3 IPass= 2 DotMx2= 4.88D-19
 OrtVCM:  IS=    1 I=    3 IndO=    9 Dot= 7.60D-01 DotN= 7.60D-01 ElMax1= 7.60D-01 ElMax1N= 7.60D-01
 OrtVCM:  Ph=2 NNew=    0 IAdd=    4 IPass= 1 DotMx2= 7.90D-02
 OrtVCM:  Ph=2 NNew=    0 IAdd=    4 IPass= 2 DotMx2= 9.23D-18
 OrtVCM:  IS=    1 I=    4 IndO=   10 Dot= 6.52D-01 DotN= 6.52D-01 ElMax1= 6.52D-01 ElMax1N= 6.52D-01
 OrtVCM:  Ph=2 NNew=    0 IAdd=    5 IPass= 1 DotMx2= 2.83D-01
 OrtVCM:  Ph=2 NNew=    0 IAdd=    5 IPass= 2 DotMx2= 2.34D-17
 OrtVCM:  IS=    1 I=    5 IndO=   11 Dot= 1.58D-01 DotN= 1.58D-01 ElMax1= 3.18D-01 ElMax1N= 3.18D-01
 OrtVCM:  Ph=2 NNew=    0 IAdd=    6 IPass= 1 DotMx2= 1.23D-01
 OrtVCM:  Ph=2 NNew=    0 IAdd=    6 IPass= 2 DotMx2= 1.88D-17
 OrtVCM:  IS=    1 I=    6 IndO=    0 Dot= 1.80D-34 DotN= 1.80D-34 ElMax1= 9.09D-18 ElMax1N= 9.09D-18
 SchOr2:  IPass= 1 Test2A= 1.00D-01 IOff=     0 NDo=     6 NNew=     5
 OrtVCM:  Ph=1 IPass= 1 DotMx1= 5.28D-01
 OrtVCM:  Ph=1 IPass= 2 DotMx1= 1.11D-16
 OrtVCM:  IS=    1 I=    1 IndO=   12 Dot= 4.96D-01 DotN= 4.96D-01 ElMax1= 4.96D-01 ElMax1N= 4.96D-01
 SchOr2:  IPass= 1 Test2A= 1.00D-01 IOff=     6 NDo=     1 NNew=     1
 VibFq2-Diag2:  N=      6 IV=           5 MDV=   131069602 NE2=    21844933
 Dipole derivative wrt mode   1:  1.12702D-02 -5.92183D-02  9.07349D+00
 Vibrational polarizability contributions from mode   1       0.0000185       0.0005121      12.0229021
 Dipole derivative wrt mode   2:  2.13102D+00  8.54551D-01 -2.08634D-01
 Vibrational polarizability contributions from mode   2       0.4567522       0.0734481       0.0043780
 Dipole derivative wrt mode   3: -2.84593D+00 -5.71674D-02  5.71879D-02
 Vibrational polarizability contributions from mode   3       0.2018284       0.0000814       0.0000815
 Dipole derivative wrt mode   4:  4.34884D+00 -1.50990D+00  2.46974D-02
 Vibrational polarizability contributions from mode   4       0.3120353       0.0376145       0.0000101
 Dipole derivative wrt mode   5: -9.24718D+00  2.40421D+00  1.44977D-02
 Vibrational polarizability contributions from mode   5       0.9448113       0.0638664       0.0000023
 Dipole derivative wrt mode   6:  1.12366D+00 -1.31458D+00 -8.87418D-03
 Vibrational polarizability contributions from mode   6       0.0022721       0.0031098       0.0000001
 Diagonal vibrational polarizability:
        1.9177180       0.1786323      12.0273741
 NorSel:  MapVib=      1      2      3      4      5      6
 Harmonic frequencies (cm**-1), IR intensities (KM/Mole), Raman scattering
 activities (A**4/AMU), depolarization ratios for plane and unpolarized
 incident light, reduced masses (AMU), force constants (mDyne/A),
 and normal coordinates:
                      1                      2                      3
                      A                      A                      A
 Frequencies --    429.2755               517.2663              1039.2027
 Red. masses --      1.2943                 6.7657                10.3690
 Frc consts  --      0.1405                 1.0666                 6.5976
 IR Inten    --     82.3318                 5.3150                 8.1059
  Atom  AN      X      Y      Z        X      Y      Z        X      Y      Z
     1   1     0.00  -0.01   0.99     0.28  -0.68  -0.06     0.18  -0.41   0.01
     2   7     0.00   0.00  -0.04    -0.33  -0.11   0.00    -0.45   0.28   0.00
     3   6     0.00   0.00  -0.13    -0.01   0.47   0.01     0.66  -0.26   0.00
     4   8     0.00   0.00   0.07     0.28  -0.21   0.00    -0.11  -0.02   0.00
                      4                      5                      6
                      A                      A                      A
 Frequencies --   1277.1381              1560.6419              3867.1435
 Red. masses --      1.7344                 2.9478                 1.0758
 Frc consts  --      1.6668                 4.2301                 9.4791
 IR Inten    --     21.1928                91.2908                 2.9908
  Atom  AN      X      Y      Z        X      Y      Z        X      Y      Z
     1   1     0.78  -0.59   0.00    -0.69   0.61   0.00     0.69   0.72   0.01
     2   7     0.11   0.03   0.00     0.07  -0.13   0.00    -0.05  -0.05   0.00
     3   6     0.02   0.09   0.00     0.21   0.22   0.00     0.00   0.00   0.00
     4   8    -0.17  -0.06   0.00    -0.18  -0.09   0.00     0.00   0.00   0.00

 -------------------
 - Thermochemistry -
 -------------------
 Temperature   298.150 Kelvin.  Pressure   1.00000 Atm.
 Atom     1 has atomic number  1 and mass   1.00783
 Atom     2 has atomic number  7 and mass  14.00307
 Atom     3 has atomic number  6 and mass  12.00000
 Atom     4 has atomic number  8 and mass  15.99491
 Molecular mass:    43.00581 amu.
 Principal axes and moments of inertia in atomic units:
                           1         2         3
     Eigenvalues --     9.30189 165.55352 174.85484
           X            0.99972   0.02349   0.00029
           Y           -0.02349   0.99972   0.00142
           Z           -0.00026  -0.00143   1.00000
 This molecule is an asymmetric top.
 Rotational symmetry number  1.
 Rotational temperatures (Kelvin)      9.31143     0.52318     0.49535
 Rotational constants (GHZ):         194.01870    10.90126    10.32137
 Zero-point vibrational energy      51981.7 (Joules/Mol)
                                   12.42393 (Kcal/Mol)
 Warning -- explicit consideration of   2 degrees of freedom as
           vibrations may cause significant error
 Vibrational temperatures:    617.63   744.23  1495.18  1837.52  2245.42
          (Kelvin)           5563.96
 
 Zero-point correction=                           0.019799 (Hartree/Particle)
 Thermal correction to Energy=                    0.023173
 Thermal correction to Enthalpy=                  0.024117
 Thermal correction to Gibbs Free Energy=        -0.004965
 Sum of electronic and zero-point Energies=           -165.436949
 Sum of electronic and thermal Energies=              -165.433575
 Sum of electronic and thermal Enthalpies=            -165.432630
 Sum of electronic and thermal Free Energies=         -165.461713
 
                     E (Thermal)             CV                S
                      KCal/Mol        Cal/Mol-Kelvin    Cal/Mol-Kelvin
 Total                   14.541              9.136             61.209
 Electronic               0.000              0.000              2.183
 Translational            0.889              2.981             37.203
 Rotational               0.889              2.981             20.226
 Vibrational             12.764              3.175              1.596
 Vibration     1          0.791              1.406              0.861
 Vibration     2          0.872              1.212              0.616
                       Q            Log10(Q)             Ln(Q)
 Total Bot       0.192252D+03          2.283870          5.258805
 Total V=0       0.245854D+12         11.390677         26.228003
 Vib (Bot)       0.984158D-09         -9.006935        -20.739235
 Vib (Bot)    1  0.406119D+00         -0.391347         -0.901109
 Vib (Bot)    2  0.312833D+00         -0.504688         -1.162087
 Vib (V=0)       0.125855D+01          0.099872          0.229964
 Vib (V=0)    1  0.114415D+01          0.058484          0.134664
 Vib (V=0)    2  0.108980D+01          0.037347          0.085994
 Electronic      0.300000D+01          0.477121          1.098612
 Translational   0.110852D+08          7.044745         16.221124
 Rotational      0.587407D+04          3.768939          8.678303
 Write normal modes, IRwNMS=   765 IRotNM=-1 NVibU=     6.
 
                                                                  T1
                                                             IR Spectrum
 
     3                                                                           1         1      1                                  
     8                                                                           5         2      0                 5 4              
     6                                                                           6         7      3                 1 2              
     7                                                                           1         7      9                 7 9              
 
     X                                                                           X         X      X                 X X              
                                                                                 X         X      X                   X              
                                                                                 X         X                          X              
                                                                                 X         X                          X              
                                                                                 X         X                          X              
                                                                                 X                                    X              
                                                                                 X                                    X              
                                                                                 X                                    X              
                                                                                 X                                    X              
                                                                                 X                                    X              
                                                                                 X                                    X              
                                                                                 X                                    X              
                                                                                 X                                    X              
                                                                                 X                                    X              
                                                                                 X                                    X              
                                                                                 X                                    X              
                                                                                 X                                    X              
                                                                                 X                                    X              
                                                                                 X                                                   
                                                                                 X                                                   
 
 Forces in standard orientation:
 -------------------------------------------------------------------
 Center     Atomic                   Forces (Hartrees/Bohr)
 Number     Number              X              Y              Z
 -------------------------------------------------------------------
      1        1           0.001741760   -0.002848022    0.000122605
      2        7          -0.029714295    0.037484207   -0.000143676
      3        6          -0.007780972   -0.068952378    0.000028867
      4        8           0.035753507    0.034316192   -0.000007796
 -------------------------------------------------------------------
 Cartesian Forces:  Max     0.068952378 RMS     0.028240153
 ***** Axes restored to original set *****
 Rotating derivatives, DoTrsp=F IDiff=-2 LEDeriv=    628 LFDPrp=       0 LDFDPr=       0.
 -------------------------------------------------------------------
 Center     Atomic                   Forces (Hartrees/Bohr)
 Number     Number              X              Y              Z
 -------------------------------------------------------------------
      1        1           0.003207926    0.000132144   -0.000922898
      2        7          -0.047229882   -0.000245289    0.007569927
      3        6           0.040835142    0.000436219   -0.056100585
      4        8           0.003186815   -0.000323074    0.049453556
 -------------------------------------------------------------------
 Cartesian Forces:  Max     0.056100585 RMS     0.028240153
 From PutF, contents of force:
   1    0.9228976345D-03
   2    0.3995144377D-01
   3    0.4576300318D-01
   4   -0.6371342258D-02
   5   -0.4427729790D-01
   6   -0.2501694919D-03
 -----------------------------------------------------------------------------------------------
                       Internal Coordinate Forces (Hartree/Bohr or radian)
  Cent   Atom   N1       Length/X         N2         Alpha/Y        N3         Beta/Z          J
 -----------------------------------------------------------------------------------------------
      1  H 
      2  N        1   0.000923(     1)
      3  C        2   0.039951(     2)      1  -0.006371(     4)
      4  O        3   0.045763(     3)      2  -0.044277(     5)      1  -0.000250(     6)     0
 -----------------------------------------------------------------------------------------------
 Internal  Forces:  Max     0.045763003 RMS     0.030801401
 Force constants in Cartesian coordinates: 
                1             2             3             4             5 
      1  0.622792D-01
      2  0.384486D-04  0.585090D-02
      3  0.131122D-01 -0.573901D-04  0.532023D+00
      4 -0.410125D-01 -0.251073D-03 -0.334284D-01  0.373763D+00
      5 -0.163013D-03 -0.132016D-02  0.440262D-04  0.303937D-03 -0.238854D-01
      6  0.524529D-01  0.176084D-03 -0.524746D+00  0.973044D-01 -0.623864D-03
      7 -0.118851D-01  0.355626D-03  0.230829D-01 -0.231829D+00 -0.610695D-03
      8  0.137110D-03 -0.122288D-01  0.000000D+00 -0.162272D-02  0.394944D-01
      9 -0.658837D-01 -0.198619D-03 -0.600805D-02  0.153741D+00  0.802950D-03
     10 -0.938159D-02 -0.143002D-03 -0.276668D-02 -0.100921D+00  0.469771D-03
     11 -0.125465D-04  0.769802D-02  0.141601D-04  0.156985D-02 -0.142888D-01
     12  0.318645D-03  0.799253D-04 -0.126960D-02 -0.217617D+00 -0.223112D-03
                6             7             8             9            10 
      6  0.643921D+00
      7 -0.653373D-01  0.279135D+00
      8  0.109095D-03 -0.150124D-03 -0.526432D-01
      9 -0.637220D-01  0.619762D-01 -0.454306D-02  0.518981D+00
     10 -0.844200D-01 -0.354200D-01  0.163573D-02 -0.149834D+00  0.145722D+00
     11  0.338685D-03  0.405193D-03  0.253775D-01  0.393873D-02 -0.196250D-02
     12 -0.554537D-01 -0.197218D-01  0.443476D-02 -0.449251D+00  0.237020D+00
               11            12 
     11 -0.187867D-01
     12 -0.429157D-02  0.505975D+00
 FCInt: Cartesian first derivatives: 
                 1             2             3             4 
      1   0.320793D-02 -0.472299D-01  0.408351D-01  0.318682D-02
      2   0.132144D-03 -0.245289D-03  0.436219D-03 -0.323074D-03
      3  -0.922898D-03  0.756993D-02 -0.561006D-01  0.494536D-01
 FCInt: Cartesian force constants: 
                1             2             3             4             5 
      1  0.622792D-01
      2  0.384486D-04  0.585090D-02
      3  0.131122D-01 -0.573901D-04  0.532023D+00
      4 -0.410125D-01 -0.251073D-03 -0.334284D-01  0.373763D+00
      5 -0.163013D-03 -0.132016D-02  0.440262D-04  0.303937D-03 -0.238854D-01
      6  0.524529D-01  0.176084D-03 -0.524746D+00  0.973044D-01 -0.623864D-03
      7 -0.118851D-01  0.355626D-03  0.230829D-01 -0.231829D+00 -0.610695D-03
      8  0.137110D-03 -0.122288D-01  0.000000D+00 -0.162272D-02  0.394944D-01
      9 -0.658837D-01 -0.198619D-03 -0.600805D-02  0.153741D+00  0.802950D-03
     10 -0.938159D-02 -0.143002D-03 -0.276668D-02 -0.100921D+00  0.469771D-03
     11 -0.125465D-04  0.769802D-02  0.141601D-04  0.156985D-02 -0.142888D-01
     12  0.318645D-03  0.799253D-04 -0.126960D-02 -0.217617D+00 -0.223112D-03
                6             7             8             9            10 
      6  0.643921D+00
      7 -0.653373D-01  0.279135D+00
      8  0.109095D-03 -0.150124D-03 -0.526432D-01
      9 -0.637220D-01  0.619762D-01 -0.454306D-02  0.518981D+00
     10 -0.844200D-01 -0.354200D-01  0.163573D-02 -0.149834D+00  0.145722D+00
     11  0.338685D-03  0.405193D-03  0.253775D-01  0.393873D-02 -0.196250D-02
     12 -0.554537D-01 -0.197218D-01  0.443476D-02 -0.449251D+00  0.237020D+00
               11            12 
     11 -0.187867D-01
     12 -0.429157D-02  0.505975D+00
 Internal force constants: 
                1             2             3             4             5 
      1  0.532023D+00
      2 -0.171647D-01  0.407825D+00
      3  0.236250D-02  0.259317D+00  0.623578D+00
      4  0.292503D-01  0.796360D-01  0.767423D-02  0.247505D+00
      5  0.446958D-02  0.436101D-01  0.221544D-01  0.395606D-01  0.259172D+00
      6  0.173610D-04 -0.315645D-03  0.918950D-04  0.652704D-04  0.480872D-03
                6 
      6  0.244716D-01
 Frcnst in PutFF: 
                1             2             3             4             5 
      1  0.532023D+00
      2 -0.171647D-01  0.407825D+00
      3  0.236250D-02  0.259317D+00  0.623578D+00
      4  0.292503D-01  0.796360D-01  0.767423D-02  0.247505D+00
      5  0.446958D-02  0.436101D-01  0.221544D-01  0.395606D-01  0.259172D+00
      6  0.173610D-04 -0.315645D-03  0.918950D-04  0.652704D-04  0.480872D-03
                6 
      6  0.244716D-01
 Force constants in internal coordinates: 
                1             2             3             4             5 
      1  0.532023D+00
      2 -0.171647D-01  0.407825D+00
      3  0.236250D-02  0.259317D+00  0.623578D+00
      4  0.292503D-01  0.796360D-01  0.767423D-02  0.247505D+00
      5  0.446958D-02  0.436101D-01  0.221544D-01  0.395606D-01  0.259172D+00
      6  0.173610D-04 -0.315645D-03  0.918950D-04  0.652704D-04  0.480872D-03
                6 
      6  0.244716D-01
 Final forces over variables, Energy=-1.65456747D+02:
  9.22897635D-04 3.99514438D-02 4.57630032D-02-6.37134226D-03
 -4.42772979D-02-2.50169492D-04
 Leave Link  716 at Fri Apr 15 18:54:10 2022, MaxMem=   131072000 cpu:               0.0 elap:               0.0
 (Enter C:\G16W\l103.exe)

 GradGradGradGradGradGradGradGradGradGradGradGradGradGradGradGradGradGrad
 Berny optimization.
 Search for a local minimum.
 Step number   1 out of a maximum of    2
 All quantities printed in internal units (Hartrees-Bohrs-Radians)
 Second derivative matrix not updated -- analytic derivatives used.
 The second derivative matrix:
                          B1        B2        B3        A1        A2
           B1           0.53202
           B2          -0.01716   0.40783
           B3           0.00236   0.25932   0.62358
           A1           0.02925   0.07964   0.00767   0.24751
           A2           0.00447   0.04361   0.02215   0.03956   0.25917
           D1           0.00002  -0.00032   0.00009   0.00007   0.00048
                          D1
           D1           0.02447
 ITU=  0
     Eigenvalues ---    0.02447   0.17345   0.23104   0.32485   0.53550
     Eigenvalues ---    0.80527
 Angle between quadratic step and forces=  29.83 degrees.
 Linear search not attempted -- first point.
 Variable       Old X    -DE/DX   Delta X   Delta X   Delta X     New X
                                 (Linear)    (Quad)   (Total)
    B1        1.98612   0.00092   0.00000   0.00798   0.00798   1.99411
    B2        2.57796   0.03995   0.00000   0.09924   0.09924   2.67721
    B3        2.32832   0.04576   0.00000   0.03908   0.03908   2.36740
    A1        1.87797  -0.00637   0.00000  -0.03003  -0.03003   1.84794
    A2        2.33616  -0.04428   0.00000  -0.18643  -0.18643   2.14973
    D1        3.15182  -0.00025   0.00000  -0.00535  -0.00535   3.14646
         Item               Value     Threshold  Converged?
 Maximum Force            0.045763     0.000450     NO 
 RMS     Force            0.030801     0.000300     NO 
 Maximum Displacement     0.186426     0.001800     NO 
 RMS     Displacement     0.088624     0.001200     NO 
 Predicted change in Energy=-7.103910D-03
                       ----------------------------
                       ! Non-Optimized Parameters !
                       ! (Angstroms and Degrees)  !
 ----------------------                            ----------------------
 !      Name          Value   Derivative information (Atomic Units)     !
 ------------------------------------------------------------------------
 !       B1          1.0552   -DE/DX =    0.0009                        !
 !       B2          1.4167   -DE/DX =    0.04                          !
 !       B3          1.2528   -DE/DX =    0.0458                        !
 !       A1        105.8794   -DE/DX =   -0.0064                        !
 !       A2        123.1707   -DE/DX =   -0.0443                        !
 !       D1        180.2791   -DE/DX =   -0.0003                        !
 ------------------------------------------------------------------------
 GradGradGradGradGradGradGradGradGradGradGradGradGradGradGradGradGradGrad

 Leave Link  103 at Fri Apr 15 18:54:10 2022, MaxMem=   131072000 cpu:               0.0 elap:               0.0
 (Enter C:\G16W\l9999.exe)

 ----------------------------------------------------------------------

 Electric dipole moment (input orientation):
 (Debye = 10**-18 statcoulomb cm , SI units = C m)
                  (au)            (Debye)         (10**-30 SI)
   Tot        0.651070D+00      0.165486D+01      0.552000D+01
   x          0.343665D-02      0.873508D-02      0.291371D-01
   y          0.884317D-04      0.224771D-03      0.749755D-03
   z         -0.651061D+00     -0.165483D+01     -0.551993D+01

 Dipole polarizability, Alpha (input orientation).
 (esu units = cm**3 , SI units = C**2 m**2 J**-1)
 Alpha(0;0):
               (au)            (10**-24 esu)      (10**-40 SI)
   iso        0.103614D+02      0.153540D+01      0.170836D+01
   aniso      0.126820D+02      0.187927D+01      0.209097D+01
   xx         0.105827D+02      0.156819D+01      0.174484D+01
   yx        -0.183770D-01     -0.272319D-02     -0.302995D-02
   yy         0.679801D+01      0.100736D+01      0.112084D+01
   zx         0.645367D+01      0.956335D+00      0.106407D+01
   zy        -0.487080D-01     -0.721778D-02     -0.803087D-02
   zz         0.137035D+02      0.203065D+01      0.225940D+01

 First dipole hyperpolarizability, Beta (input orientation).
 ||, _|_  parallel and perpendicular components, (z) with respect to z axis,
 vector components x,y,z.  Values do not include the 1/n! factor of 1/2.
 (esu units = statvolt**-1 cm**4 , SI units = C**3 m**3 J**-2)
 Beta(0;0,0):
               (au)            (10**-30 esu)      (10**-50 SI)
   || (z)    -0.226093D+02     -0.195326D+00     -0.724934D-01
   _|_(z)    -0.753642D+01     -0.651088D-01     -0.241645D-01
   x          0.164063D+03      0.141738D+01      0.526046D+00
   y         -0.456596D-02     -0.394463D-04     -0.146401D-04
   z         -0.113046D+03     -0.976632D+00     -0.362467D+00
   ||         0.398478D+02      0.344254D+00      0.127766D+00
   xxx        0.292184D+02      0.252425D+00      0.936849D-01
   xxy        0.785333D-02      0.678466D-04      0.251806D-04
   yxy        0.224768D+02      0.194182D+00      0.720687D-01
   yyy       -0.103331D+00     -0.892698D-03     -0.331316D-03
   xxz        0.292752D+01      0.252915D-01      0.938667D-02
   yxz       -0.240434D+00     -0.207716D-02     -0.770917D-03
   yyz       -0.197799D+02     -0.170883D+00     -0.634214D-01
   zxz        0.299245D+01      0.258525D-01      0.959488D-02
   zyz        0.939556D-01      0.811703D-03      0.301256D-03
   zzz       -0.208297D+02     -0.179953D+00     -0.667877D-01

 ----------------------------------------------------------------------

 Dipole orientation:
     1          0.00000000          0.00000000          0.00000000
     7          0.01048368         -0.00026977         -1.98609715
     6          2.47185327         -0.00037476         -2.75261545
     8          3.51275223          0.01650690         -4.83524076

 Electric dipole moment (dipole orientation):
 (Debye = 10**-18 statcoulomb cm , SI units = C m)
                  (au)            (Debye)         (10**-30 SI)
   Tot        0.651070D+00      0.165486D+01      0.552000D+01
   x          0.000000D+00      0.000000D+00      0.000000D+00
   y          0.000000D+00      0.000000D+00      0.000000D+00
   z          0.651070D+00      0.165486D+01      0.552000D+01

 Dipole polarizability, Alpha (dipole orientation).
 (esu units = cm**3 , SI units = C**2 m**2 J**-1)
 Alpha(0;0):
               (au)            (10**-24 esu)      (10**-40 SI)
   iso        0.103614D+02      0.153540D+01      0.170836D+01
   aniso      0.126820D+02      0.187927D+01      0.209097D+01
   xx         0.106509D+02      0.157830D+01      0.175609D+01
   yx         0.177537D-01      0.263082D-02      0.292719D-02
   yy         0.679800D+01      0.100736D+01      0.112084D+01
   zx        -0.646978D+01     -0.958723D+00     -0.106672D+01
   zy        -0.476793D-01     -0.706535D-02     -0.786126D-02
   zz         0.136353D+02      0.202054D+01      0.224816D+01

 First dipole hyperpolarizability, Beta (dipole orientation).
 ||, _|_  parallel and perpendicular components, (z) with respect to z axis,
 vector components x,y,z.  Values do not include the 1/n! factor of 1/2.
 (esu units = statvolt**-1 cm**4 , SI units = C**3 m**3 J**-2)
 Beta(0;0,0):
               (au)            (10**-30 esu)      (10**-50 SI)
   || (z)     0.227821D+02      0.196820D+00      0.730478D-01
   _|_(z)     0.759405D+01      0.656066D-01      0.243493D-01
   x          0.163464D+03      0.141220D+01      0.524125D+00
   y          0.199793D-01      0.172606D-03      0.640608D-04
   z          0.113911D+03      0.984100D+00      0.365239D+00
   ||         0.398478D+02      0.344254D+00      0.127766D+00
   xxx        0.292638D+02      0.252817D+00      0.938304D-01
   xxy       -0.569283D-02     -0.491816D-04     -0.182533D-04
   yxy        0.223720D+02      0.193277D+00      0.717327D-01
   yyy        0.111415D+00      0.962538D-03      0.357236D-03
   xxz       -0.280402D+01     -0.242245D-01     -0.899069D-02
   yxz       -0.242609D+00     -0.209595D-02     -0.777891D-03
   yyz        0.198982D+02      0.171905D+00      0.638007D-01
   zxz        0.285219D+01      0.246407D-01      0.914515D-02
   zyz       -0.990623D-01     -0.855821D-03     -0.317629D-03
   zzz        0.208761D+02      0.180353D+00      0.669362D-01

 ----------------------------------------------------------------------

 Test job not archived.
 1|1|UNPC-DESKTOP-RNC6JTU|Freq|UHF|STO-3G|C1H1N1O1(3)|BNULK|15-Apr-2022
 |1||#p sto-3g scf=maxcycle=999 freq=noraman IOP(7/33=1) hf||T1||0,3|H|
 N,1,B1|C,2,B2,1,A1|O,3,B3,2,A2,1,D1,0||B1=1.051012|B2=1.364199|B3=1.23
 2095|A1=107.600038|A2=133.852078|D1=180.585753||Version=EM64W-G16RevA.
 03|State=3-A|HF=-165.4567473|S2=2.253725|S2-1=0.|S2A=2.005252|RMSD=4.1
 33e-009|RMSF=2.824e-002|ZeroPoint=0.0197988|Thermal=0.0231727|Dipole=0
 .0034366,0.0000884,-0.6510611|DipoleDeriv=0.2587993,-0.0001498,0.12934
 68,0.0006544,0.3237835,-0.000833,0.0579639,-0.0002174,-0.0054183,-0.03
 74269,-0.000847,-0.0407715,-0.001434,-0.3273358,0.0013057,0.0725815,-0
 .0007291,0.0456109,-0.2556589,0.0022459,-0.2856237,0.0032968,0.0086733
 ,0.0016836,-0.4770623,0.0046928,-0.2224571,0.0342865,-0.001249,0.19704
 84,-0.0025172,-0.005121,-0.0021564,0.3465168,-0.0037463,0.1822645|Pola
 r=10.5826505,-0.018377,6.7980109,6.4536677,-0.048708,13.703502|HyperPo
 lar=29.2184456,0.0078533,22.4767944,-0.1033309,2.9275161,-0.2404335,-1
 9.7798511,2.992452,0.0939556,-20.8297494|Quadrupole=-1.9126274,0.71532
 03,1.1973071,0.0032093,0.3791021,0.0088677|PG=C01 [X(C1H1N1O1)]|NImag=
 0||0.06227923,0.00003845,0.00585090,0.01311215,-0.00005739,0.53202322,
 -0.04101254,-0.00025107,-0.03342840,0.37376259,-0.00016301,-0.00132016
 ,0.00004403,0.00030394,-0.02388541,0.05245293,0.00017608,-0.52474557,0
 .09730436,-0.00062386,0.64392122,-0.01188509,0.00035563,0.02308292,-0.
 23182940,-0.00061069,-0.06533733,0.27913453,0.00013711,-0.01222876,-0.
 00000080,-0.00162272,0.03949440,0.00010910,-0.00015012,-0.05264316,-0.
 06588372,-0.00019862,-0.00600805,0.15374132,0.00080295,-0.06372198,0.0
 6197624,-0.00454306,0.51898127,-0.00938159,-0.00014300,-0.00276668,-0.
 10092065,0.00046977,-0.08441996,-0.03542004,0.00163573,-0.14983383,0.1
 4572228,-0.00001255,0.00769802,0.00001416,0.00156985,-0.01428883,0.000
 33868,0.00040519,0.02537753,0.00393873,-0.00196250,-0.01878671,0.00031
 865,0.00007993,-0.00126960,-0.21761729,-0.00022311,-0.05545367,-0.0197
 2183,0.00443476,-0.44925124,0.23702047,-0.00429157,0.50597450||-0.0032
 0793,-0.00013214,0.00092290,0.04722988,0.00024529,-0.00756993,-0.04083
 514,-0.00043622,0.05610059,-0.00318682,0.00032307,-0.04945356|||@


 I WANT TO KNOW HOW GOD CREATED THE WORLD.  I AM NOT INTERESTED IN
 THIS OR THAT PHENOMENON, IN THE SPECTRUM OF THIS OR THAT ELEMENT.
 I WANT TO KNOW HIS THOUGHTS, THE REST ARE DETAILS.
     -- ALBERT EINSTEIN
 Job cpu time:       0 days  0 hours  0 minutes  2.0 seconds.
 Elapsed time:       0 days  0 hours  0 minutes  1.1 seconds.
 File lengths (MBytes):  RWF=      6 Int=      0 D2E=      0 Chk=      1 Scr=      1
 Normal termination of Gaussian 16 at Fri Apr 15 18:54:10 2022.
