 Entering Gaussian System, Link 0=g16
 Input=State2_3.gjf
 Output=State2_3.out
 Initial command:
 C:\G16W\l1.exe ".\Gau-21468.inp" "State2_3.out" /scrdir=".\"
 Entering Link 1 = C:\G16W\l1.exe PID=     14960.
  
 Copyright (c) 1988,1990,1992,1993,1995,1998,2003,2009,2016,
            Gaussian, Inc.  All Rights Reserved.
  
 This is part of the Gaussian(R) 16 program.  It is based on
 the Gaussian(R) 09 system (copyright 2009, Gaussian, Inc.),
 the Gaussian(R) 03 system (copyright 2003, Gaussian, Inc.),
 the Gaussian(R) 98 system (copyright 1998, Gaussian, Inc.),
 the Gaussian(R) 94 system (copyright 1995, Gaussian, Inc.),
 the Gaussian 92(TM) system (copyright 1992, Gaussian, Inc.),
 the Gaussian 90(TM) system (copyright 1990, Gaussian, Inc.),
 the Gaussian 88(TM) system (copyright 1988, Gaussian, Inc.),
 the Gaussian 86(TM) system (copyright 1986, Carnegie Mellon
 University), and the Gaussian 82(TM) system (copyright 1983,
 Carnegie Mellon University). Gaussian is a federally registered
 trademark of Gaussian, Inc.
  
 This software contains proprietary and confidential information,
 including trade secrets, belonging to Gaussian, Inc.
  
 This software is provided under written license and may be
 used, copied, transmitted, or stored only in accord with that
 written license.
  
 The following legend is applicable only to US Government
 contracts under FAR:
  
                    RESTRICTED RIGHTS LEGEND
  
 Use, reproduction and disclosure by the US Government is
 subject to restrictions as set forth in subparagraphs (a)
 and (c) of the Commercial Computer Software - Restricted
 Rights clause in FAR 52.227-19.
  
 Gaussian, Inc.
 340 Quinnipiac St., Bldg. 40, Wallingford CT 06492
  
  
 ---------------------------------------------------------------
 Warning -- This program may not be used in any manner that
 competes with the business of Gaussian, Inc. or will provide
 assistance to any competitor of Gaussian, Inc.  The licensee
 of this program is prohibited from giving any competitor of
 Gaussian, Inc. access to this program.  By using this program,
 the user acknowledges that Gaussian, Inc. is engaged in the
 business of creating and licensing software in the field of
 computational chemistry and represents and warrants to the
 licensee that it is not a competitor of Gaussian, Inc. and that
 it will not use this program in any manner prohibited above.
 ---------------------------------------------------------------
  

 Cite this work as:
 Gaussian 16, Revision A.03,
 M. J. Frisch, G. W. Trucks, H. B. Schlegel, G. E. Scuseria, 
 M. A. Robb, J. R. Cheeseman, G. Scalmani, V. Barone, 
 G. A. Petersson, H. Nakatsuji, X. Li, M. Caricato, A. V. Marenich, 
 J. Bloino, B. G. Janesko, R. Gomperts, B. Mennucci, H. P. Hratchian, 
 J. V. Ortiz, A. F. Izmaylov, J. L. Sonnenberg, D. Williams-Young, 
 F. Ding, F. Lipparini, F. Egidi, J. Goings, B. Peng, A. Petrone, 
 T. Henderson, D. Ranasinghe, V. G. Zakrzewski, J. Gao, N. Rega, 
 G. Zheng, W. Liang, M. Hada, M. Ehara, K. Toyota, R. Fukuda, 
 J. Hasegawa, M. Ishida, T. Nakajima, Y. Honda, O. Kitao, H. Nakai, 
 T. Vreven, K. Throssell, J. A. Montgomery, Jr., J. E. Peralta, 
 F. Ogliaro, M. J. Bearpark, J. J. Heyd, E. N. Brothers, K. N. Kudin, 
 V. N. Staroverov, T. A. Keith, R. Kobayashi, J. Normand, 
 K. Raghavachari, A. P. Rendell, J. C. Burant, S. S. Iyengar, 
 J. Tomasi, M. Cossi, J. M. Millam, M. Klene, C. Adamo, R. Cammi, 
 J. W. Ochterski, R. L. Martin, K. Morokuma, O. Farkas, 
 J. B. Foresman, and D. J. Fox, Gaussian, Inc., Wallingford CT, 2016.
 
 ******************************************
 Gaussian 16:  EM64W-G16RevA.03 17-Dec-2016
                15-Apr-2022 
 ******************************************
 %mem=1000mb
 %chk=LiuKun2.chk
 ------------------------------------------------------
 #p sto-3g scf=maxcycle=999 freq=noraman IOP(7/33=1) hf
 ------------------------------------------------------
 1/10=4,30=1,38=1/1,3;
 2/12=2,17=6,18=5,40=1/2;
 3/6=3,11=9,25=1,30=1,71=2,140=1/1,2,3;
 4//1;
 5/5=2,7=999,38=5,98=1/2;
 8/6=4,10=90,11=11/1;
 11/6=1,8=1,9=11,15=111,16=1/1,2,10;
 10/6=1/2;
 6/7=2,8=2,9=2,10=2,28=1/1;
 7/8=1,10=1,25=1,33=1/1,2,3,16;
 1/10=4,30=1/3;
 99//99;
 Leave Link    1 at Fri Apr 15 18:54:04 2022, MaxMem=   131072000 cpu:               0.0 elap:               0.0
 (Enter C:\G16W\l101.exe)
 --
 T1
 --
 Symbolic Z-matrix:
 Charge =  0 Multiplicity = 3
 H
 N                    1    B1
 C                    2    B2       1    A1
 O                    3    B3       2    A2       1    D1       0
       Variables:
  B1                    1.05219                  
  B2                    1.39031                  
  B3                    1.20341                  
  A1                  107.14165                  
  A2                  133.22724                  
  D1                  175.80969                  
 
 ITRead=  0  0  0  0
 MicOpt= -1 -1 -1 -1
 NAtoms=      4 NQM=        4 NQMF=       0 NMMI=      0 NMMIF=      0
                NMic=       0 NMicF=      0.
                    Isotopes and Nuclear Properties:
 (Nuclear quadrupole moments (NQMom) in fm**2, nuclear magnetic moments (NMagM)
  in nuclear magnetons)

  Atom         1           2           3           4
 IAtWgt=           1          14          12          16
 AtmWgt=   1.0078250  14.0030740  12.0000000  15.9949146
 NucSpn=           1           2           0           0
 AtZEff=   0.0000000   0.0000000   0.0000000   0.0000000
 NQMom=    0.0000000   2.0440000   0.0000000   0.0000000
 NMagM=    2.7928460   0.4037610   0.0000000   0.0000000
 AtZNuc=   1.0000000   7.0000000   6.0000000   8.0000000
 Leave Link  101 at Fri Apr 15 18:54:04 2022, MaxMem=   131072000 cpu:               0.0 elap:               0.1
 (Enter C:\G16W\l103.exe)

 GradGradGradGradGradGradGradGradGradGradGradGradGradGradGradGradGradGrad
 Berny optimization.
 Initialization pass.
                       ----------------------------
                       !    Initial Parameters    !
                       ! (Angstroms and Degrees)  !
 ----------------------                            ----------------------
 !      Name          Value   Derivative information (Atomic Units)     !
 ------------------------------------------------------------------------
 !       B1          1.0522   calculate D2E/DX2 analytically            !
 !       B2          1.3903   calculate D2E/DX2 analytically            !
 !       B3          1.2034   calculate D2E/DX2 analytically            !
 !       A1        107.1417   calculate D2E/DX2 analytically            !
 !       A2        133.2272   calculate D2E/DX2 analytically            !
 !       D1        175.8097   calculate D2E/DX2 analytically            !
 ------------------------------------------------------------------------
 Trust Radius=3.00D-01 FncErr=1.00D-07 GrdErr=1.00D-07 EigMax=2.50D+02 EigMin=1.00D-04
 Number of steps in this run=      2 maximum allowed number of steps=      2.
 GradGradGradGradGradGradGradGradGradGradGradGradGradGradGradGradGradGrad

 Leave Link  103 at Fri Apr 15 18:54:04 2022, MaxMem=   131072000 cpu:               0.0 elap:               0.0
 (Enter C:\G16W\l202.exe)
                          Input orientation:                          
 ---------------------------------------------------------------------
 Center     Atomic      Atomic             Coordinates (Angstroms)
 Number     Number       Type             X           Y           Z
 ---------------------------------------------------------------------
      1          1           0        0.000000    0.000000    0.000000
      2          7           0        0.000000    0.000000    1.052186
      3          6           0        1.328551    0.000000    1.461959
      4          8           0        1.858399    0.064072    2.540550
 ---------------------------------------------------------------------
                    Distance matrix (angstroms):
                    1          2          3          4
     1  H    0.000000
     2  N    1.052186   0.000000
     3  C    1.975442   1.390310   0.000000
     4  O    3.148356   2.381802   1.203413   0.000000
 Stoichiometry    CHNO(3)
 Framework group  C1[X(CHNO)]
 Deg. of freedom     6
 Full point group                 C1      NOp   1
 Largest Abelian subgroup         C1      NOp   1
 Largest concise Abelian subgroup C1      NOp   1
                         Standard orientation:                         
 ---------------------------------------------------------------------
 Center     Atomic      Atomic             Coordinates (Angstroms)
 Number     Number       Type             X           Y           Z
 ---------------------------------------------------------------------
      1          1           0       -1.877029    0.547481    0.044972
      2          7           0       -1.178129   -0.237558   -0.003491
      3          6           0        0.086633    0.339736   -0.012010
      4          8           0        1.200516   -0.115374    0.006441
 ---------------------------------------------------------------------
 Rotational constants (GHZ):         189.8012850          10.9676455          10.3702579
 Leave Link  202 at Fri Apr 15 18:54:04 2022, MaxMem=   131072000 cpu:               0.0 elap:               0.0
 (Enter C:\G16W\l301.exe)
 Standard basis: STO-3G (5D, 7F)
 Ernie: Thresh=  0.10000D-02 Tol=  0.10000D-05 Strict=F.
 There are    16 symmetry adapted cartesian basis functions of A   symmetry.
 There are    16 symmetry adapted basis functions of A   symmetry.
    16 basis functions,    48 primitive gaussians,    16 cartesian basis functions
    12 alpha electrons       10 beta electrons
       nuclear repulsion energy        56.0072578123 Hartrees.
 IExCor=    0 DFT=F Ex=HF Corr=None ExCW=0 ScaHFX=  1.000000
 ScaDFX=  1.000000  1.000000  1.000000  1.000000 ScalE2=  1.000000  1.000000
 IRadAn=      5 IRanWt=     -1 IRanGd=            0 ICorTp=0 IEmpDi=  4
 NAtoms=    4 NActive=    4 NUniq=    4 SFac= 1.00D+00 NAtFMM=   60 NAOKFM=F Big=F
 Integral buffers will be    131072 words long.
 Raffenetti 2 integral format.
 Two-electron integral symmetry is turned on.
 Leave Link  301 at Fri Apr 15 18:54:04 2022, MaxMem=   131072000 cpu:               0.0 elap:               0.0
 (Enter C:\G16W\l302.exe)
 NPDir=0 NMtPBC=     1 NCelOv=     1 NCel=       1 NClECP=     1 NCelD=      1
         NCelK=      1 NCelE2=     1 NClLst=     1 CellRange=     0.0.
 One-electron integrals computed using PRISM.
 One-electron integral symmetry used in STVInt
 NBasis=    16 RedAO= T EigKep=  2.46D-01  NBF=    16
 NBsUse=    16 1.00D-06 EigRej= -1.00D+00 NBFU=    16
 Leave Link  302 at Fri Apr 15 18:54:04 2022, MaxMem=   131072000 cpu:               0.0 elap:               0.1
 (Enter C:\G16W\l303.exe)
 DipDrv:  MaxL=1.
 Leave Link  303 at Fri Apr 15 18:54:05 2022, MaxMem=   131072000 cpu:               1.0 elap:               0.0
 (Enter C:\G16W\l401.exe)
 ExpMin= 1.69D-01 ExpMax= 1.31D+02 ExpMxC= 1.31D+02 IAcc=3 IRadAn=         5 AccDes= 0.00D+00
 Harris functional with IExCor=  205 and IRadAn=       5 diagonalized for initial guess.
 HarFok:  IExCor=  205 AccDes= 0.00D+00 IRadAn=         5 IDoV= 1 UseB2=F ITyADJ=14
 ICtDFT=  3500011 ScaDFX=  1.000000  1.000000  1.000000  1.000000
 FoFCou: FMM=F IPFlag=           0 FMFlag=      100000 FMFlg1=           0
         NFxFlg=           0 DoJE=T BraDBF=F KetDBF=T FulRan=T
         wScrn=  0.000000 ICntrl=       500 IOpCl=  0 I1Cent=   200000004 NGrid=           0
         NMat0=    1 NMatS0=      1 NMatT0=    0 NMatD0=    1 NMtDS0=    0 NMtDT0=    0
 Petite list used in FoFCou.
 Harris En= -165.371578330009    
 JPrj=0 DoOrth=F DoCkMO=F.
 Initial guess <Sx>= 0.0000 <Sy>= 0.0000 <Sz>= 1.0000 <S**2>= 2.0000 S= 1.0000
 Leave Link  401 at Fri Apr 15 18:54:05 2022, MaxMem=   131072000 cpu:               0.0 elap:               0.1
 (Enter C:\G16W\l502.exe)
 Keep R1 and R2 ints in memory in canonical form, NReq=823457.
 FoFCou: FMM=F IPFlag=           0 FMFlag=           0 FMFlg1=           0
         NFxFlg=           0 DoJE=F BraDBF=F KetDBF=F FulRan=T
         wScrn=  0.000000 ICntrl=       600 IOpCl=  0 I1Cent=           0 NGrid=           0
         NMat0=    1 NMatS0=    136 NMatT0=    0 NMatD0=    1 NMtDS0=    0 NMtDT0=    0
 Symmetry not used in FoFCou.
 Two-electron integral symmetry not used.
 UHF open shell SCF:
 Using DIIS extrapolation, IDIIS=  1040.
 NGot=   131072000 LenX=   131051941 LenY=   131051059
 Requested convergence on RMS density matrix=1.00D-08 within 999 cycles.
 Requested convergence on MAX density matrix=1.00D-06.
 Requested convergence on             energy=1.00D-06.
 No special actions if energy rises.

 Cycle   1  Pass 1  IDiag  1:
 E= -165.406572586471    
 DIIS: error= 2.85D-02 at cycle   1 NSaved=   1.
 NSaved= 1 IEnMin= 1 EnMin= -165.406572586471     IErMin= 1 ErrMin= 2.85D-02
 ErrMax= 2.85D-02  0.00D+00 EMaxC= 1.00D-01 BMatC= 9.79D-02 BMatP= 9.79D-02
 IDIUse=3 WtCom= 7.15D-01 WtEn= 2.85D-01
 Coeff-Com:  0.100D+01
 Coeff-En:   0.100D+01
 Coeff:      0.100D+01
 Gap=     0.534 Goal=   None    Shift=    0.000
 Gap=     0.513 Goal=   None    Shift=    0.000
 GapD=    0.513 DampG=2.000 DampE=0.500 DampFc=1.0000 IDamp=-1.
 RMSDP=1.23D-02 MaxDP=8.72D-02              OVMax= 0.00D+00

 Cycle   2  Pass 1  IDiag  1:
 E= -165.440456915650     Delta-E=       -0.033884329179 Rises=F Damp=F
 DIIS: error= 1.75D-02 at cycle   2 NSaved=   2.
 NSaved= 2 IEnMin= 2 EnMin= -165.440456915650     IErMin= 2 ErrMin= 1.75D-02
 ErrMax= 1.75D-02  0.00D+00 EMaxC= 1.00D-01 BMatC= 1.12D-02 BMatP= 9.79D-02
 IDIUse=3 WtCom= 8.25D-01 WtEn= 1.75D-01
 Coeff-Com: -0.109D+00 0.111D+01
 Coeff-En:   0.000D+00 0.100D+01
 Coeff:     -0.899D-01 0.109D+01
 Gap=     0.561 Goal=   None    Shift=    0.000
 Gap=     0.554 Goal=   None    Shift=    0.000
 RMSDP=6.04D-03 MaxDP=3.73D-02 DE=-3.39D-02 OVMax= 0.00D+00

 Cycle   3  Pass 1  IDiag  1:
 E= -165.449084228802     Delta-E=       -0.008627313152 Rises=F Damp=F
 DIIS: error= 1.29D-02 at cycle   3 NSaved=   3.
 NSaved= 3 IEnMin= 3 EnMin= -165.449084228802     IErMin= 3 ErrMin= 1.29D-02
 ErrMax= 1.29D-02  0.00D+00 EMaxC= 1.00D-01 BMatC= 3.22D-03 BMatP= 1.12D-02
 IDIUse=3 WtCom= 8.71D-01 WtEn= 1.29D-01
 Coeff-Com: -0.611D-01-0.100D+00 0.116D+01
 Coeff-En:   0.000D+00 0.000D+00 0.100D+01
 Coeff:     -0.532D-01-0.873D-01 0.114D+01
 Gap=     0.571 Goal=   None    Shift=    0.000
 Gap=     0.556 Goal=   None    Shift=    0.000
 RMSDP=3.77D-03 MaxDP=4.09D-02 DE=-8.63D-03 OVMax= 0.00D+00

 Cycle   4  Pass 1  IDiag  1:
 E= -165.451984703807     Delta-E=       -0.002900475004 Rises=F Damp=F
 DIIS: error= 7.55D-03 at cycle   4 NSaved=   4.
 NSaved= 4 IEnMin= 4 EnMin= -165.451984703807     IErMin= 4 ErrMin= 7.55D-03
 ErrMax= 7.55D-03  0.00D+00 EMaxC= 1.00D-01 BMatC= 1.29D-03 BMatP= 3.22D-03
 IDIUse=3 WtCom= 9.25D-01 WtEn= 7.55D-02
 Coeff-Com:  0.160D-01-0.326D+00 0.252D+00 0.106D+01
 Coeff-En:   0.000D+00 0.000D+00 0.000D+00 0.100D+01
 Coeff:      0.148D-01-0.301D+00 0.233D+00 0.105D+01
 Gap=     0.579 Goal=   None    Shift=    0.000
 Gap=     0.568 Goal=   None    Shift=    0.000
 RMSDP=2.65D-03 MaxDP=2.56D-02 DE=-2.90D-03 OVMax= 0.00D+00

 Cycle   5  Pass 1  IDiag  1:
 E= -165.453396339567     Delta-E=       -0.001411635760 Rises=F Damp=F
 DIIS: error= 4.65D-03 at cycle   5 NSaved=   5.
 NSaved= 5 IEnMin= 5 EnMin= -165.453396339567     IErMin= 5 ErrMin= 4.65D-03
 ErrMax= 4.65D-03  0.00D+00 EMaxC= 1.00D-01 BMatC= 5.06D-04 BMatP= 1.29D-03
 IDIUse=3 WtCom= 9.54D-01 WtEn= 4.65D-02
 Coeff-Com:  0.561D-02 0.148D-01-0.124D+00-0.231D+00 0.134D+01
 Coeff-En:   0.000D+00 0.000D+00 0.000D+00 0.000D+00 0.100D+01
 Coeff:      0.535D-02 0.141D-01-0.119D+00-0.220D+00 0.132D+01
 Gap=     0.581 Goal=   None    Shift=    0.000
 Gap=     0.573 Goal=   None    Shift=    0.000
 RMSDP=2.10D-03 MaxDP=2.60D-02 DE=-1.41D-03 OVMax= 0.00D+00

 Cycle   6  Pass 1  IDiag  1:
 E= -165.454305720790     Delta-E=       -0.000909381223 Rises=F Damp=F
 DIIS: error= 3.45D-03 at cycle   6 NSaved=   6.
 NSaved= 6 IEnMin= 6 EnMin= -165.454305720790     IErMin= 6 ErrMin= 3.45D-03
 ErrMax= 3.45D-03  0.00D+00 EMaxC= 1.00D-01 BMatC= 3.56D-04 BMatP= 5.06D-04
 IDIUse=3 WtCom= 9.65D-01 WtEn= 3.45D-02
 Coeff-Com: -0.245D-01 0.197D+00 0.152D+00-0.878D+00-0.166D+01 0.322D+01
 Coeff-En:   0.000D+00 0.000D+00 0.000D+00 0.000D+00 0.000D+00 0.100D+01
 Coeff:     -0.237D-01 0.190D+00 0.147D+00-0.848D+00-0.161D+01 0.314D+01
 Gap=     0.587 Goal=   None    Shift=    0.000
 Gap=     0.584 Goal=   None    Shift=    0.000
 RMSDP=5.17D-03 MaxDP=6.01D-02 DE=-9.09D-04 OVMax= 0.00D+00

 Cycle   7  Pass 1  IDiag  1:
 E= -165.455763454533     Delta-E=       -0.001457733743 Rises=F Damp=F
 DIIS: error= 1.43D-03 at cycle   7 NSaved=   7.
 NSaved= 7 IEnMin= 7 EnMin= -165.455763454533     IErMin= 7 ErrMin= 1.43D-03
 ErrMax= 1.43D-03  0.00D+00 EMaxC= 1.00D-01 BMatC= 6.43D-05 BMatP= 3.56D-04
 IDIUse=3 WtCom= 9.86D-01 WtEn= 1.43D-02
 Coeff-Com:  0.144D-01-0.179D+00 0.113D-01 0.663D+00 0.843D+00-0.233D+01
 Coeff-Com:  0.197D+01
 Coeff-En:   0.000D+00 0.000D+00 0.000D+00 0.000D+00 0.000D+00 0.000D+00
 Coeff-En:   0.100D+01
 Coeff:      0.142D-01-0.176D+00 0.111D-01 0.653D+00 0.831D+00-0.229D+01
 Coeff:      0.196D+01
 Gap=     0.591 Goal=   None    Shift=    0.000
 Gap=     0.589 Goal=   None    Shift=    0.000
 RMSDP=1.91D-03 MaxDP=2.14D-02 DE=-1.46D-03 OVMax= 0.00D+00

 Cycle   8  Pass 1  IDiag  1:
 E= -165.455957769049     Delta-E=       -0.000194314516 Rises=F Damp=F
 DIIS: error= 3.66D-04 at cycle   8 NSaved=   8.
 NSaved= 8 IEnMin= 8 EnMin= -165.455957769049     IErMin= 8 ErrMin= 3.66D-04
 ErrMax= 3.66D-04  0.00D+00 EMaxC= 1.00D-01 BMatC= 7.38D-06 BMatP= 6.43D-05
 IDIUse=3 WtCom= 9.96D-01 WtEn= 3.66D-03
 Coeff-Com: -0.909D-02 0.128D+00-0.825D-02-0.482D+00-0.567D+00 0.163D+01
 Coeff-Com: -0.181D+01 0.212D+01
 Coeff-En:   0.000D+00 0.000D+00 0.000D+00 0.000D+00 0.000D+00 0.000D+00
 Coeff-En:   0.000D+00 0.100D+01
 Coeff:     -0.906D-02 0.127D+00-0.822D-02-0.480D+00-0.565D+00 0.162D+01
 Coeff:     -0.181D+01 0.212D+01
 Gap=     0.592 Goal=   None    Shift=    0.000
 Gap=     0.591 Goal=   None    Shift=    0.000
 RMSDP=8.34D-04 MaxDP=8.78D-03 DE=-1.94D-04 OVMax= 0.00D+00

 Cycle   9  Pass 1  IDiag  1:
 E= -165.455973972165     Delta-E=       -0.000016203116 Rises=F Damp=F
 DIIS: error= 1.72D-04 at cycle   9 NSaved=   9.
 NSaved= 9 IEnMin= 9 EnMin= -165.455973972165     IErMin= 9 ErrMin= 1.72D-04
 ErrMax= 1.72D-04  0.00D+00 EMaxC= 1.00D-01 BMatC= 1.09D-06 BMatP= 7.38D-06
 IDIUse=3 WtCom= 9.98D-01 WtEn= 1.72D-03
 Coeff-Com:  0.158D-02-0.243D-01-0.284D-02 0.987D-01 0.956D-01-0.247D+00
 Coeff-Com:  0.445D+00-0.822D+00 0.146D+01
 Coeff-En:   0.000D+00 0.000D+00 0.000D+00 0.000D+00 0.000D+00 0.000D+00
 Coeff-En:   0.000D+00 0.000D+00 0.100D+01
 Coeff:      0.157D-02-0.242D-01-0.283D-02 0.985D-01 0.955D-01-0.247D+00
 Coeff:      0.444D+00-0.821D+00 0.145D+01
 Gap=     0.591 Goal=   None    Shift=    0.000
 Gap=     0.590 Goal=   None    Shift=    0.000
 RMSDP=3.29D-04 MaxDP=3.28D-03 DE=-1.62D-05 OVMax= 0.00D+00

 Cycle  10  Pass 1  IDiag  1:
 E= -165.455975126104     Delta-E=       -0.000001153939 Rises=F Damp=F
 DIIS: error= 8.70D-05 at cycle  10 NSaved=  10.
 NSaved=10 IEnMin=10 EnMin= -165.455975126104     IErMin=10 ErrMin= 8.70D-05
 ErrMax= 8.70D-05  0.00D+00 EMaxC= 1.00D-01 BMatC= 2.62D-07 BMatP= 1.09D-06
 IDIUse=1 WtCom= 1.00D+00 WtEn= 0.00D+00
 Coeff-Com:  0.412D-03-0.573D-02 0.636D-03 0.193D-01 0.289D-01-0.126D+00
 Coeff-Com:  0.246D-01 0.726D-01-0.621D+00 0.161D+01
 Coeff:      0.412D-03-0.573D-02 0.636D-03 0.193D-01 0.289D-01-0.126D+00
 Coeff:      0.246D-01 0.726D-01-0.621D+00 0.161D+01
 Gap=     0.592 Goal=   None    Shift=    0.000
 Gap=     0.591 Goal=   None    Shift=    0.000
 RMSDP=2.24D-04 MaxDP=2.42D-03 DE=-1.15D-06 OVMax= 0.00D+00

 Cycle  11  Pass 1  IDiag  1:
 E= -165.455975806213     Delta-E=       -0.000000680109 Rises=F Damp=F
 DIIS: error= 5.52D-05 at cycle  11 NSaved=  11.
 NSaved=11 IEnMin=11 EnMin= -165.455975806213     IErMin=11 ErrMin= 5.52D-05
 ErrMax= 5.52D-05  0.00D+00 EMaxC= 1.00D-01 BMatC= 8.11D-08 BMatP= 2.62D-07
 IDIUse=1 WtCom= 1.00D+00 WtEn= 0.00D+00
 Coeff-Com: -0.492D-03 0.753D-02 0.118D-02-0.260D-01-0.357D-01 0.110D+00
 Coeff-Com: -0.105D+00 0.165D+00-0.114D+00-0.366D+00 0.136D+01
 Coeff:     -0.492D-03 0.753D-02 0.118D-02-0.260D-01-0.357D-01 0.110D+00
 Coeff:     -0.105D+00 0.165D+00-0.114D+00-0.366D+00 0.136D+01
 Gap=     0.591 Goal=   None    Shift=    0.000
 Gap=     0.591 Goal=   None    Shift=    0.000
 RMSDP=9.15D-05 MaxDP=9.98D-04 DE=-6.80D-07 OVMax= 0.00D+00

 Cycle  12  Pass 1  IDiag  1:
 E= -165.455975995720     Delta-E=       -0.000000189507 Rises=F Damp=F
 DIIS: error= 1.48D-05 at cycle  12 NSaved=  12.
 NSaved=12 IEnMin=12 EnMin= -165.455975995720     IErMin=12 ErrMin= 1.48D-05
 ErrMax= 1.48D-05  0.00D+00 EMaxC= 1.00D-01 BMatC= 9.04D-09 BMatP= 8.11D-08
 IDIUse=1 WtCom= 1.00D+00 WtEn= 0.00D+00
 Coeff-Com:  0.118D-03-0.236D-02-0.123D-02 0.734D-02 0.961D-02-0.345D-01
 Coeff-Com:  0.372D-01-0.783D-01 0.969D-01-0.109D-01-0.785D+00 0.176D+01
 Coeff:      0.118D-03-0.236D-02-0.123D-02 0.734D-02 0.961D-02-0.345D-01
 Coeff:      0.372D-01-0.783D-01 0.969D-01-0.109D-01-0.785D+00 0.176D+01
 Gap=     0.591 Goal=   None    Shift=    0.000
 Gap=     0.591 Goal=   None    Shift=    0.000
 RMSDP=3.94D-05 MaxDP=4.01D-04 DE=-1.90D-07 OVMax= 0.00D+00

 Cycle  13  Pass 1  IDiag  1:
 E= -165.455976014758     Delta-E=       -0.000000019038 Rises=F Damp=F
 DIIS: error= 1.05D-05 at cycle  13 NSaved=  13.
 NSaved=13 IEnMin=13 EnMin= -165.455976014758     IErMin=13 ErrMin= 1.05D-05
 ErrMax= 1.05D-05  0.00D+00 EMaxC= 1.00D-01 BMatC= 4.21D-09 BMatP= 9.04D-09
 IDIUse=1 WtCom= 1.00D+00 WtEn= 0.00D+00
 Coeff-Com: -0.167D-04 0.578D-03 0.488D-03-0.177D-02-0.211D-03 0.201D-02
 Coeff-Com: -0.136D-01 0.364D-01-0.926D-01 0.229D+00-0.444D-01-0.988D+00
 Coeff-Com:  0.187D+01
 Coeff:     -0.167D-04 0.578D-03 0.488D-03-0.177D-02-0.211D-03 0.201D-02
 Coeff:     -0.136D-01 0.364D-01-0.926D-01 0.229D+00-0.444D-01-0.988D+00
 Coeff:      0.187D+01
 Gap=     0.591 Goal=   None    Shift=    0.000
 Gap=     0.591 Goal=   None    Shift=    0.000
 RMSDP=1.73D-05 MaxDP=1.63D-04 DE=-1.90D-08 OVMax= 0.00D+00

 Cycle  14  Pass 1  IDiag  1:
 E= -165.455976027084     Delta-E=       -0.000000012326 Rises=F Damp=F
 DIIS: error= 2.83D-06 at cycle  14 NSaved=  14.
 NSaved=14 IEnMin=14 EnMin= -165.455976027084     IErMin=14 ErrMin= 2.83D-06
 ErrMax= 2.83D-06  0.00D+00 EMaxC= 1.00D-01 BMatC= 3.27D-10 BMatP= 4.21D-09
 IDIUse=1 WtCom= 1.00D+00 WtEn= 0.00D+00
 Coeff-Com: -0.401D-04 0.338D-03-0.108D-04-0.162D-02-0.439D-02 0.116D-01
 Coeff-Com: -0.234D-03-0.126D-01 0.648D-01-0.219D+00 0.217D+00 0.563D+00
 Coeff-Com: -0.181D+01 0.219D+01
 Coeff:     -0.401D-04 0.338D-03-0.108D-04-0.162D-02-0.439D-02 0.116D-01
 Coeff:     -0.234D-03-0.126D-01 0.648D-01-0.219D+00 0.217D+00 0.563D+00
 Coeff:     -0.181D+01 0.219D+01
 Gap=     0.591 Goal=   None    Shift=    0.000
 Gap=     0.591 Goal=   None    Shift=    0.000
 RMSDP=5.76D-06 MaxDP=3.48D-05 DE=-1.23D-08 OVMax= 0.00D+00

 Cycle  15  Pass 1  IDiag  1:
 E= -165.455976027830     Delta-E=       -0.000000000745 Rises=F Damp=F
 DIIS: error= 2.55D-06 at cycle  15 NSaved=  15.
 NSaved=15 IEnMin=15 EnMin= -165.455976027830     IErMin=15 ErrMin= 2.55D-06
 ErrMax= 2.55D-06  0.00D+00 EMaxC= 1.00D-01 BMatC= 1.71D-10 BMatP= 3.27D-10
 IDIUse=1 WtCom= 1.00D+00 WtEn= 0.00D+00
 Coeff-Com:  0.230D-04-0.129D-03-0.122D-03 0.887D-03 0.303D-02-0.523D-02
 Coeff-Com:  0.886D-03 0.509D-02-0.218D-01 0.774D-01-0.481D-01-0.377D+00
 Coeff-Com:  0.111D+01-0.173D+01 0.198D+01
 Coeff:      0.230D-04-0.129D-03-0.122D-03 0.887D-03 0.303D-02-0.523D-02
 Coeff:      0.886D-03 0.509D-02-0.218D-01 0.774D-01-0.481D-01-0.377D+00
 Coeff:      0.111D+01-0.173D+01 0.198D+01
 Gap=     0.591 Goal=   None    Shift=    0.000
 Gap=     0.591 Goal=   None    Shift=    0.000
 RMSDP=2.41D-06 MaxDP=1.51D-05 DE=-7.45D-10 OVMax= 0.00D+00

 Cycle  16  Pass 1  IDiag  1:
 E= -165.455976028233     Delta-E=       -0.000000000403 Rises=F Damp=F
 DIIS: error= 9.42D-07 at cycle  16 NSaved=  16.
 NSaved=16 IEnMin=16 EnMin= -165.455976028233     IErMin=16 ErrMin= 9.42D-07
 ErrMax= 9.42D-07  0.00D+00 EMaxC= 1.00D-01 BMatC= 4.72D-11 BMatP= 1.71D-10
 IDIUse=1 WtCom= 1.00D+00 WtEn= 0.00D+00
 Coeff-Com: -0.132D-04 0.389D-04 0.232D-03-0.397D-03-0.275D-02 0.461D-02
 Coeff-Com: -0.359D-04-0.469D-02 0.213D-01-0.702D-01 0.598D-01 0.242D+00
 Coeff-Com: -0.831D+00 0.156D+01-0.247D+01 0.250D+01
 Coeff:     -0.132D-04 0.389D-04 0.232D-03-0.397D-03-0.275D-02 0.461D-02
 Coeff:     -0.359D-04-0.469D-02 0.213D-01-0.702D-01 0.598D-01 0.242D+00
 Coeff:     -0.831D+00 0.156D+01-0.247D+01 0.250D+01
 Gap=     0.591 Goal=   None    Shift=    0.000
 Gap=     0.591 Goal=   None    Shift=    0.000
 RMSDP=1.62D-06 MaxDP=1.24D-05 DE=-4.03D-10 OVMax= 0.00D+00

 Cycle  17  Pass 1  IDiag  1:
 E= -165.455976028381     Delta-E=       -0.000000000149 Rises=F Damp=F
 DIIS: error= 5.11D-07 at cycle  17 NSaved=  17.
 NSaved=17 IEnMin=17 EnMin= -165.455976028381     IErMin=17 ErrMin= 5.11D-07
 ErrMax= 5.11D-07  0.00D+00 EMaxC= 1.00D-01 BMatC= 1.16D-11 BMatP= 4.72D-11
 IDIUse=1 WtCom= 1.00D+00 WtEn= 0.00D+00
 Coeff-Com:  0.267D-05 0.300D-04-0.170D-03-0.348D-04 0.143D-02-0.214D-02
 Coeff-Com: -0.520D-03 0.279D-02-0.117D-01 0.348D-01-0.309D-01-0.963D-01
 Coeff-Com:  0.370D+00-0.808D+00 0.151D+01-0.204D+01 0.207D+01
 Coeff:      0.267D-05 0.300D-04-0.170D-03-0.348D-04 0.143D-02-0.214D-02
 Coeff:     -0.520D-03 0.279D-02-0.117D-01 0.348D-01-0.309D-01-0.963D-01
 Coeff:      0.370D+00-0.808D+00 0.151D+01-0.204D+01 0.207D+01
 Gap=     0.591 Goal=   None    Shift=    0.000
 Gap=     0.591 Goal=   None    Shift=    0.000
 RMSDP=1.06D-06 MaxDP=8.84D-06 DE=-1.49D-10 OVMax= 0.00D+00

 Cycle  18  Pass 1  IDiag  1:
 E= -165.455976028412     Delta-E=       -0.000000000031 Rises=F Damp=F
 DIIS: error= 4.39D-07 at cycle  18 NSaved=  18.
 NSaved=18 IEnMin=18 EnMin= -165.455976028412     IErMin=18 ErrMin= 4.39D-07
 ErrMax= 4.39D-07  0.00D+00 EMaxC= 1.00D-01 BMatC= 1.13D-11 BMatP= 1.16D-11
 IDIUse=1 WtCom= 1.00D+00 WtEn= 0.00D+00
 Coeff-Com: -0.490D-05-0.450D-04 0.280D-03 0.533D-04-0.243D-02 0.317D-02
 Coeff-Com:  0.391D-03-0.327D-02 0.134D-01-0.380D-01 0.175D-01 0.163D+00
 Coeff-Com: -0.548D+00 0.122D+01-0.234D+01 0.351D+01-0.549D+01 0.449D+01
 Coeff:     -0.490D-05-0.450D-04 0.280D-03 0.533D-04-0.243D-02 0.317D-02
 Coeff:      0.391D-03-0.327D-02 0.134D-01-0.380D-01 0.175D-01 0.163D+00
 Coeff:     -0.548D+00 0.122D+01-0.234D+01 0.351D+01-0.549D+01 0.449D+01
 Gap=     0.591 Goal=   None    Shift=    0.000
 Gap=     0.591 Goal=   None    Shift=    0.000
 RMSDP=1.66D-06 MaxDP=1.27D-05 DE=-3.07D-11 OVMax= 0.00D+00

 Cycle  19  Pass 1  IDiag  1:
 E= -165.455976028477     Delta-E=       -0.000000000065 Rises=F Damp=F
 DIIS: error= 2.01D-07 at cycle  19 NSaved=  19.
 NSaved=19 IEnMin=19 EnMin= -165.455976028477     IErMin=19 ErrMin= 2.01D-07
 ErrMax= 2.01D-07  0.00D+00 EMaxC= 1.00D-01 BMatC= 2.28D-12 BMatP= 1.13D-11
 IDIUse=1 WtCom= 1.00D+00 WtEn= 0.00D+00
 Coeff-Com:  0.438D-05 0.612D-05-0.149D-03 0.417D-04 0.148D-02-0.210D-02
 Coeff-Com: -0.887D-05 0.160D-02-0.749D-02 0.211D-01-0.466D-02-0.106D+00
 Coeff-Com:  0.325D+00-0.681D+00 0.123D+01-0.186D+01 0.337D+01-0.371D+01
 Coeff-Com:  0.241D+01
 Coeff:      0.438D-05 0.612D-05-0.149D-03 0.417D-04 0.148D-02-0.210D-02
 Coeff:     -0.887D-05 0.160D-02-0.749D-02 0.211D-01-0.466D-02-0.106D+00
 Coeff:      0.325D+00-0.681D+00 0.123D+01-0.186D+01 0.337D+01-0.371D+01
 Coeff:      0.241D+01
 Gap=     0.591 Goal=   None    Shift=    0.000
 Gap=     0.591 Goal=   None    Shift=    0.000
 RMSDP=1.08D-06 MaxDP=9.07D-06 DE=-6.52D-11 OVMax= 0.00D+00

 Cycle  20  Pass 1  IDiag  1:
 E= -165.455976028493     Delta-E=       -0.000000000015 Rises=F Damp=F
 DIIS: error= 6.45D-08 at cycle  20 NSaved=  20.
 NSaved=20 IEnMin=20 EnMin= -165.455976028493     IErMin=20 ErrMin= 6.45D-08
 ErrMax= 6.45D-08  0.00D+00 EMaxC= 1.00D-01 BMatC= 3.16D-13 BMatP= 2.28D-12
 IDIUse=1 WtCom= 1.00D+00 WtEn= 0.00D+00
 Coeff-Com: -0.293D-06-0.410D-05 0.205D-04 0.247D-04-0.230D-03 0.279D-03
 Coeff-Com:  0.659D-05-0.532D-04 0.382D-03-0.375D-04-0.522D-02 0.151D-01
 Coeff-Com: -0.329D-01 0.777D-01-0.151D+00 0.279D+00-0.864D+00 0.131D+01
 Coeff-Com: -0.127D+01 0.164D+01
 Coeff:     -0.293D-06-0.410D-05 0.205D-04 0.247D-04-0.230D-03 0.279D-03
 Coeff:      0.659D-05-0.532D-04 0.382D-03-0.375D-04-0.522D-02 0.151D-01
 Coeff:     -0.329D-01 0.777D-01-0.151D+00 0.279D+00-0.864D+00 0.131D+01
 Coeff:     -0.127D+01 0.164D+01
 Gap=     0.591 Goal=   None    Shift=    0.000
 Gap=     0.591 Goal=   None    Shift=    0.000
 RMSDP=1.84D-07 MaxDP=1.52D-06 DE=-1.53D-11 OVMax= 0.00D+00

 Cycle  21  Pass 1  IDiag  1:
 E= -165.455976028494     Delta-E=       -0.000000000001 Rises=F Damp=F
 DIIS: error= 2.84D-08 at cycle  21 NSaved=  20.
 NSaved=20 IEnMin=20 EnMin= -165.455976028494     IErMin=20 ErrMin= 2.84D-08
 ErrMax= 2.84D-08  0.00D+00 EMaxC= 1.00D-01 BMatC= 4.11D-14 BMatP= 3.16D-13
 IDIUse=1 WtCom= 1.00D+00 WtEn= 0.00D+00
 Large coefficients: NSaved= 20 BigCof=    0.00 CofMax=   10.00 Det=-4.95D-15
 Inversion failed.  Reducing to 19 matrices.
 Large coefficients: NSaved= 19 BigCof=    0.00 CofMax=   10.00 Det=-5.50D-15
 Inversion failed.  Reducing to 18 matrices.
 Large coefficients: NSaved= 18 BigCof=    0.00 CofMax=   10.00 Det=-5.78D-15
 Inversion failed.  Reducing to 17 matrices.
 Coeff-Com:  0.338D-04-0.503D-04 0.135D-05 0.843D-05-0.580D-04 0.854D-04
 Coeff-Com:  0.105D-02-0.448D-02 0.914D-02-0.137D-01 0.119D-01 0.591D-02
 Coeff-Com:  0.460D-01-0.170D+00 0.267D+00-0.683D+00 0.153D+01
 Coeff:      0.338D-04-0.503D-04 0.135D-05 0.843D-05-0.580D-04 0.854D-04
 Coeff:      0.105D-02-0.448D-02 0.914D-02-0.137D-01 0.119D-01 0.591D-02
 Coeff:      0.460D-01-0.170D+00 0.267D+00-0.683D+00 0.153D+01
 Gap=     0.591 Goal=   None    Shift=    0.000
 Gap=     0.591 Goal=   None    Shift=    0.000
 RMSDP=3.79D-08 MaxDP=3.03D-07 DE=-9.66D-13 OVMax= 0.00D+00

 Cycle  22  Pass 1  IDiag  1:
 E= -165.455976028494     Delta-E=        0.000000000000 Rises=F Damp=F
 DIIS: error= 1.75D-08 at cycle  22 NSaved=  18.
 NSaved=18 IEnMin=17 EnMin= -165.455976028494     IErMin=18 ErrMin= 1.75D-08
 ErrMax= 1.75D-08  0.00D+00 EMaxC= 1.00D-01 BMatC= 1.23D-14 BMatP= 4.11D-14
 IDIUse=1 WtCom= 1.00D+00 WtEn= 0.00D+00
 Large coefficients: NSaved= 18 BigCof=    0.00 CofMax=   10.00 Det=-1.49D-15
 Inversion failed.  Reducing to 17 matrices.
 Large coefficients: NSaved= 17 BigCof=    0.00 CofMax=   10.00 Det=-2.28D-15
 Inversion failed.  Reducing to 16 matrices.
 Large coefficients: NSaved= 16 BigCof=    0.00 CofMax=   10.00 Det=-2.31D-15
 Inversion failed.  Reducing to 15 matrices.
 Coeff-Com:  0.237D-04-0.852D-04 0.219D-03-0.211D-03-0.141D-03 0.891D-04
 Coeff-Com:  0.183D-02-0.180D-02-0.166D-01 0.447D-01-0.273D-01-0.121D-01
 Coeff-Com:  0.221D+00-0.162D+01 0.241D+01
 Coeff:      0.237D-04-0.852D-04 0.219D-03-0.211D-03-0.141D-03 0.891D-04
 Coeff:      0.183D-02-0.180D-02-0.166D-01 0.447D-01-0.273D-01-0.121D-01
 Coeff:      0.221D+00-0.162D+01 0.241D+01
 Gap=     0.591 Goal=   None    Shift=    0.000
 Gap=     0.591 Goal=   None    Shift=    0.000
 RMSDP=2.65D-08 MaxDP=1.72D-07 DE= 5.68D-14 OVMax= 0.00D+00

 Cycle  23  Pass 1  IDiag  1:
 E= -165.455976028494     Delta-E=        0.000000000000 Rises=F Damp=F
 DIIS: error= 4.70D-09 at cycle  23 NSaved=  16.
 NSaved=16 IEnMin=14 EnMin= -165.455976028494     IErMin=16 ErrMin= 4.70D-09
 ErrMax= 4.70D-09  0.00D+00 EMaxC= 1.00D-01 BMatC= 1.35D-15 BMatP= 1.23D-14
 IDIUse=1 WtCom= 1.00D+00 WtEn= 0.00D+00
 Large coefficients: NSaved= 16 BigCof=    0.00 CofMax=   10.00 Det=-2.20D-16
 Inversion failed.  Reducing to 15 matrices.
 Coeff-Com:  0.993D-06 0.193D-05-0.564D-04 0.143D-03 0.130D-03-0.156D-02
 Coeff-Com:  0.329D-02 0.170D-02-0.192D-01 0.297D-01-0.323D-01 0.124D-01
 Coeff-Com:  0.566D+00-0.128D+01 0.172D+01
 Coeff:      0.993D-06 0.193D-05-0.564D-04 0.143D-03 0.130D-03-0.156D-02
 Coeff:      0.329D-02 0.170D-02-0.192D-01 0.297D-01-0.323D-01 0.124D-01
 Coeff:      0.566D+00-0.128D+01 0.172D+01
 Gap=     0.591 Goal=   None    Shift=    0.000
 Gap=     0.591 Goal=   None    Shift=    0.000
 RMSDP=8.28D-09 MaxDP=5.36D-08 DE= 0.00D+00 OVMax= 0.00D+00

 SCF Done:  E(UHF) =  -165.455976028     A.U. after   23 cycles
            NFock= 23  Conv=0.83D-08     -V/T= 2.0076
 <Sx>= 0.0000 <Sy>= 0.0000 <Sz>= 1.0000 <S**2>= 2.2069 S= 1.0675
 <L.S>= 0.000000000000E+00
 KE= 1.642080604897D+02 PE=-5.021347929657D+02 EE= 1.164634986352D+02
 Annihilation of the first spin contaminant:
 S**2 before annihilation     2.2069,   after     2.0046
 Leave Link  502 at Fri Apr 15 18:54:05 2022, MaxMem=   131072000 cpu:               0.0 elap:               0.1
 (Enter C:\G16W\l801.exe)
 Range of M.O.s used for correlation:     1    16
 NBasis=    16 NAE=    12 NBE=    10 NFC=     0 NFV=     0
 NROrb=     16 NOA=    12 NOB=    10 NVA=     4 NVB=     6
 Leave Link  801 at Fri Apr 15 18:54:05 2022, MaxMem=   131072000 cpu:               0.0 elap:               0.0
 (Enter C:\G16W\l1101.exe)
 Using compressed storage, NAtomX=     4.
 Will process      5 centers per pass.
 Leave Link 1101 at Fri Apr 15 18:54:05 2022, MaxMem=   131072000 cpu:               0.0 elap:               0.0
 (Enter C:\G16W\l1102.exe)
 Symmetrizing basis deriv contribution to polar:
 IMax=3 JMax=2 DiffMx= 0.00D+00
 Leave Link 1102 at Fri Apr 15 18:54:05 2022, MaxMem=   131072000 cpu:               0.0 elap:               0.0
 (Enter C:\G16W\l1110.exe)
 Forming Gx(P) for the SCF density, NAtomX=     4.
 Integral derivatives from FoFJK, PRISM(SPDF).
 Do as many integral derivatives as possible in FoFJK.
 G2DrvN: MDV=     131071592.
 G2DrvN: will do     5 centers at a time, making    1 passes.
 Calling FoFCou, ICntrl=  3107 FMM=F I1Cent=   0 AccDes= 0.00D+00.
 FoFJK:  IHMeth= 1 ICntrl=    3107 DoSepK=F KAlg= 0 I1Cent=           0 FoldK=F
 IRaf=         0 NMat=       1 IRICut=       1 DoRegI=T DoRafI=F ISym2E= 0 IDoP0=0 IntGTp=1.
 FoFCou: FMM=F IPFlag=           0 FMFlag=      100000 FMFlg1=           0
         NFxFlg=           0 DoJE=F BraDBF=F KetDBF=F FulRan=T
         wScrn=  0.000000 ICntrl=      3107 IOpCl=  1 I1Cent=           0 NGrid=           0
         NMat0=    1 NMatS0=      1 NMatT0=    0 NMatD0=    1 NMtDS0=    0 NMtDT0=    0
 Symmetry not used in FoFCou.
 End of G2Drv F.D. properties file   721 does not exist.
 End of G2Drv F.D. properties file   722 does not exist.
 End of G2Drv F.D. properties file   788 does not exist.
 Leave Link 1110 at Fri Apr 15 18:54:05 2022, MaxMem=   131072000 cpu:               0.0 elap:               0.1
 (Enter C:\G16W\l1002.exe)
 Minotr:  UHF open shell wavefunction.
          IDoAtm=1111
          Direct CPHF calculation.
          Differentiating once with respect to electric field.
                with respect to dipole field.
          Differentiating once with respect to nuclear coordinates.
          Requested convergence is 1.0D-08 RMS, and 1.0D-07 maximum.
          Secondary convergence is 1.0D-12 RMS, and 1.0D-12 maximum.
          NewPWx=T KeepS1=F KeepF1=F KeepIn=T MapXYZ=F SortEE=F KeepMc=T.
 Keep R1 and R2 ints in memory in canonical form, NReq=824015.
 FoFCou: FMM=F IPFlag=           0 FMFlag=           0 FMFlg1=           0
         NFxFlg=           0 DoJE=F BraDBF=F KetDBF=F FulRan=T
         wScrn=  0.000000 ICntrl=       600 IOpCl=  0 I1Cent=           0 NGrid=           0
         NMat0=    1 NMatS0=    136 NMatT0=    0 NMatD0=    1 NMtDS0=    0 NMtDT0=    0
 Symmetry not used in FoFCou.
 Two-electron integral symmetry not used.
          MDV=     131072000 using IRadAn=       1.
          Solving linear equations simultaneously, MaxMat=       0.
          There are    15 degrees of freedom in the 1st order CPHF.  IDoFFX=6 NUNeed=     3.
     12 vectors produced by pass  0 Test12= 7.20D-16 6.67D-09 XBig12= 1.08D+01 1.85D+00.
 AX will form    12 AO Fock derivatives at one time.
     12 vectors produced by pass  1 Test12= 7.20D-16 6.67D-09 XBig12= 6.60D-01 3.04D-01.
     12 vectors produced by pass  2 Test12= 7.20D-16 6.67D-09 XBig12= 2.38D-02 4.60D-02.
     12 vectors produced by pass  3 Test12= 7.20D-16 6.67D-09 XBig12= 3.30D-04 6.66D-03.
     12 vectors produced by pass  4 Test12= 7.20D-16 6.67D-09 XBig12= 2.28D-06 5.18D-04.
     12 vectors produced by pass  5 Test12= 7.20D-16 6.67D-09 XBig12= 1.80D-08 4.53D-05.
     12 vectors produced by pass  6 Test12= 7.20D-16 6.67D-09 XBig12= 9.02D-11 2.92D-06.
      5 vectors produced by pass  7 Test12= 7.20D-16 6.67D-09 XBig12= 1.46D-13 1.65D-07.
      1 vectors produced by pass  8 Test12= 7.20D-16 6.67D-09 XBig12= 5.72D-16 8.81D-09.
 InvSVY:  IOpt=1 It=  1 EMax= 1.11D-15
 Solved reduced A of dimension    90 with    12 vectors.
 FullF1:  Do perturbations      1 to       3.
 Isotropic polarizability for W=    0.000000       10.32 Bohr**3.
 End of Minotr F.D. properties file   721 does not exist.
 End of Minotr F.D. properties file   722 does not exist.
 End of Minotr F.D. properties file   788 does not exist.
 Leave Link 1002 at Fri Apr 15 18:54:05 2022, MaxMem=   131072000 cpu:               0.0 elap:               0.1
 (Enter C:\G16W\l601.exe)
 Copying SCF densities to generalized density rwf, IOpCl= 1 IROHF=0.

 **********************************************************************

            Population analysis using the SCF density.

 **********************************************************************

 Orbital symmetries:
 Alpha Orbitals:
       Occupied  (A) (A) (A) (A) (A) (A) (A) (A) (A) (A) (A) (A)
       Virtual   (A) (A) (A) (A)
 Beta  Orbitals:
       Occupied  (A) (A) (A) (A) (A) (A) (A) (A) (A) (A)
       Virtual   (A) (A) (A) (A) (A) (A)
 The electronic state is 3-A.
 Alpha  occ. eigenvalues --  -20.38580 -15.40468 -11.09220  -1.42504  -1.18683
 Alpha  occ. eigenvalues --   -0.73036  -0.64919  -0.59264  -0.57176  -0.49549
 Alpha  occ. eigenvalues --   -0.47123  -0.27223
 Alpha virt. eigenvalues --    0.31917   0.54737   0.70885   0.96934
  Beta  occ. eigenvalues --  -20.36043 -15.37569 -11.08616  -1.32736  -1.05317
  Beta  occ. eigenvalues --   -0.68010  -0.55517  -0.45729  -0.43706  -0.38985
  Beta virt. eigenvalues --    0.20122   0.27432   0.43080   0.59050   0.74841
  Beta virt. eigenvalues --    1.03961
          Condensed to atoms (all electrons):
               1          2          3          4
     1  H    0.562296   0.303359  -0.040939   0.001095
     2  N    0.303359   6.608798   0.303575  -0.015490
     3  C   -0.040939   0.303575   5.177550   0.399724
     4  O    0.001095  -0.015490   0.399724   7.748707
          Atomic-Atomic Spin Densities.
               1          2          3          4
     1  H   -0.057883  -0.009275  -0.007349   0.000043
     2  N   -0.009275   1.249016  -0.050744   0.000603
     3  C   -0.007349  -0.050744   0.222871  -0.127791
     4  O    0.000043   0.000603  -0.127791   0.975018
 Mulliken charges and spin densities:
               1          2
     1  H    0.174189  -0.074463
     2  N   -0.200244   1.189601
     3  C    0.160090   0.036988
     4  O   -0.134036   0.847874
 Sum of Mulliken charges =   0.00000   2.00000
 Mulliken charges and spin densities with hydrogens summed into heavy atoms:
               1          2
     2  N   -0.026054   1.115138
     3  C    0.160090   0.036988
     4  O   -0.134036   0.847874
 APT charges:
               1
     1  H    0.181590
     2  N   -0.094593
     3  C   -0.153672
     4  O    0.066675
 Sum of APT charges =   0.00000
 APT charges with hydrogens summed into heavy atoms:
               1
     2  N    0.086997
     3  C   -0.153672
     4  O    0.066675
 Electronic spatial extent (au):  <R**2>=            127.3986
 Charge=              0.0000 electrons
 Dipole moment (field-independent basis, Debye):
    X=             -1.1775    Y=              1.2294    Z=              0.0713  Tot=              1.7038
 Quadrupole moment (field-independent basis, Debye-Ang):
   XX=            -15.2330   YY=            -15.7690   ZZ=            -13.9755
   XY=             -2.0859   XZ=             -0.1303   YZ=              0.0301
 Traceless Quadrupole moment (field-independent basis, Debye-Ang):
   XX=             -0.2405   YY=             -0.7765   ZZ=              1.0170
   XY=             -2.0859   XZ=             -0.1303   YZ=              0.0301
 Octapole moment (field-independent basis, Debye-Ang**2):
  XXX=             -2.0004  YYY=             -0.7592  ZZZ=              0.0640  XYY=              1.5193
  XXY=              3.7418  XXZ=              0.1589  XZZ=              1.5351  YZZ=             -0.3772
  YYZ=              0.0790  XYZ=             -0.0316
 Hexadecapole moment (field-independent basis, Debye-Ang**3):
 XXXX=            -99.0558 YYYY=            -17.3624 ZZZZ=             -8.7988 XXXY=             -6.7110
 XXXZ=             -0.3873 YYYX=             -1.9652 YYYZ=              0.0399 ZZZX=              0.0239
 ZZZY=              0.0131 XXYY=            -20.0019 XXZZ=            -17.9206 YYZZ=             -4.2865
 XXYZ=              0.0648 YYXZ=             -0.0432 ZZXY=             -0.3320
 N-N= 5.600725781226D+01 E-N=-5.021347929609D+02  KE= 1.642080604897D+02
  Exact polarizability:  18.275  -2.401   6.053  -0.026  -0.114   6.621
 Approx polarizability:  17.646  -2.391   5.534   0.029   0.015   2.801
                          Isotropic Fermi Contact Couplings
        Atom                 a.u.       MegaHertz       Gauss      10(-4) cm-1
     1  H(1)              -0.02334     -52.16974     -18.61546     -17.40195
     2  N(14)              0.13176      21.28608       7.59540       7.10027
     3  C(13)              0.23358     131.29668      46.84992      43.79586
     4  O(17)              0.12153     -36.83587     -13.14395     -12.28712
 --------------------------------------------------------
       Center         ----  Spin Dipole Couplings  ----
                      3XX-RR        3YY-RR        3ZZ-RR
 --------------------------------------------------------
     1   Atom        0.037256      0.032733     -0.069990
     2   Atom       -0.661407     -0.656111      1.317519
     3   Atom       -0.000548      0.900085     -0.899537
     4   Atom       -1.230952      0.027621      1.203331
 --------------------------------------------------------
                        XY            XZ            YZ
 --------------------------------------------------------
     1   Atom       -0.135300     -0.008455      0.007738
     2   Atom        0.305351      0.059720     -0.093475
     3   Atom       -0.071189      0.006102      0.008609
     4   Atom       -0.060175     -0.078034     -0.079582
 --------------------------------------------------------


 ---------------------------------------------------------------------------------
              Anisotropic Spin Dipole Couplings in Principal Axis System
 ---------------------------------------------------------------------------------

       Atom             a.u.   MegaHertz   Gauss  10(-4) cm-1        Axes

              Baa    -0.1003   -53.531   -19.101   -17.856  0.7015  0.7125  0.0138
     1 H(1)   Bbb    -0.0705   -37.631   -13.428   -12.552  0.0242 -0.0432  0.9988
              Bcc     0.1709    91.162    32.529    30.408  0.7122 -0.7003 -0.0475
 
              Baa    -0.9692   -37.382   -13.339   -12.469  0.7081 -0.7046 -0.0473
     2 N(14)  Bbb    -0.3537   -13.643    -4.868    -4.551  0.7058  0.7083  0.0144
              Bcc     1.3230    51.025    18.207    17.020  0.0234 -0.0436  0.9988
 
              Baa    -0.8996  -120.721   -43.076   -40.268 -0.0072 -0.0051  1.0000
     3 C(13)  Bbb    -0.0061    -0.817    -0.292    -0.273  0.9969  0.0782  0.0076
              Bcc     0.9057   121.538    43.368    40.541 -0.0783  0.9969  0.0045
 
              Baa    -1.2366    89.477    31.928    29.846  0.9982  0.0496  0.0335
     4 O(17)  Bbb     0.0256    -1.855    -0.662    -0.619 -0.0517  0.9966  0.0639
              Bcc     1.2109   -87.622   -31.266   -29.228 -0.0303 -0.0655  0.9974
 

 ---------------------------------------------------------------------------------

 No NMR shielding tensors so no spin-rotation constants.
 Leave Link  601 at Fri Apr 15 18:54:05 2022, MaxMem=   131072000 cpu:               0.0 elap:               0.1
 (Enter C:\G16W\l701.exe)
 SCFChk:  SCF convergence  8.28D-09 required  1.00D-08
 ... and contract with generalized density number  0.
 Compute integral second derivatives.
 Entering OneElI...
 Calculate overlap and kinetic energy integrals
    NBasis =  16  MinDer = 2  MaxDer = 2
 Requested accuracy = 0.1000D-12
 PrmmSu-InSpLW:  IPartL=    0 NPrtUS=    1 NPrtUL=    1 DoSpLW=F IThBeg=    0 IThEnd=    0 NThAct=    1.
 PrsmSu:  NPrtUS=   1 ThrOK=F IAlg=1 NPAlg=1 LenDen=           0 ISkipM=0 DoSpLW=F IThBeg=    0 IThEnd=    0.
 Prism:   IPart=     0 DynPar=F LinDyn=F Incr=           1.
 PRISM was handed   131065534 working-precision words and    28 shell-pairs
 IPart=  0 NShTot=          28 NBatch=           8 AvBLen=         3.5
 PrSmSu:  NxtVal=              2.
 Entering OneElI...
 Calculate potential energy integrals
    NBasis =  16  MinDer = 2  MaxDer = 2
 Requested accuracy = 0.1000D-12
 PrmmSu-InSpLW:  IPartL=    0 NPrtUS=    1 NPrtUL=    1 DoSpLW=F IThBeg=    0 IThEnd=    0 NThAct=    1.
 PrsmSu:  NPrtUS=   1 ThrOK=F IAlg=1 NPAlg=1 LenDen=           0 ISkipM=0 DoSpLW=F IThBeg=    0 IThEnd=    0.
 Prism:   IPart=     0 DynPar=F LinDyn=F Incr=           1.
 PRISM was handed   131065828 working-precision words and    27 shell-pairs
 IPart=  0 NShTot=         108 NBatch=          27 AvBLen=         4.0
 PrSmSu:  NxtVal=              2.
 Polarizability after L701:
                1             2             3 
      1  0.182753D+02
      2 -0.240119D+01  0.605271D+01
      3 -0.258834D-01 -0.113769D+00  0.662128D+01
 Dipole Derivatives after L701:
                 1             2             3             4             5 
      1   0.223634D+00  0.154297D+00  0.800664D-02  0.115134D-01 -0.110411D+00
      2   0.835286D-01  0.767897D-02 -0.194533D-01  0.138582D-02  0.167805D-01
      3   0.706126D-02 -0.162654D-01  0.313458D+00  0.108095D-02  0.184461D-01
                 6             7             8             9            10 
      1  -0.997816D-02 -0.604011D+00  0.154219D+00 -0.511966D-02  0.368863D+00
      2   0.247454D-01 -0.236984D-01  0.123162D+00 -0.236484D-02 -0.612160D-01
      3  -0.312074D+00 -0.230956D-01  0.109019D-01  0.198332D-01  0.149534D-01
                11            12 
      1  -0.198105D+00  0.709117D-02
      2  -0.147621D+00 -0.292728D-02
      3  -0.130826D-01 -0.212176D-01
 Hessian after L701:
                1             2             3             4             5 
      1  0.176641D+01
      2  0.881145D+00  0.166679D+01
      3  0.542115D-01 -0.590883D-01  0.244050D+01
      4 -0.169407D+01 -0.741560D+00 -0.535511D-01  0.575256D+00
      5 -0.906250D+00 -0.174579D+01  0.596252D-01 -0.128327D+01  0.625841D+01
      6 -0.623493D-01  0.556716D-01 -0.246084D+01  0.897635D-01 -0.407147D-01
      7 -0.186971D+00 -0.569556D-01  0.306009D-02  0.250552D+00  0.203429D+01
      8  0.754468D-01  0.920211D-01 -0.249848D-02  0.185104D+01 -0.405559D+01
      9  0.103741D-01  0.271417D-02  0.481262D-01 -0.455962D-01 -0.194278D-01
     10  0.114629D+00 -0.826285D-01 -0.372047D-02  0.868263D+00  0.155234D+00
     11 -0.503418D-01 -0.130289D-01  0.196157D-02  0.173791D+00 -0.457032D+00
     12 -0.223629D-02  0.702541D-03 -0.277904D-01  0.938382D-02  0.517276D-03
                6             7             8             9            10 
      6  0.821194D+01
      7 -0.377646D-01 -0.455806D+00
      8 -0.140448D-01  0.137419D+01  0.113642D+02
      9 -0.519644D+01 -0.131356D+00  0.931045D-01  0.150443D+02
     10  0.103503D-01  0.392225D+00 -0.330068D+01  0.166578D+00 -0.137512D+01
     11 -0.912146D-03 -0.335152D+01 -0.740063D+01 -0.763908D-01  0.322808D+01
     12 -0.554667D+00  0.166061D+00 -0.765612D-01 -0.989599D+01 -0.173208D+00
               11            12 
     11  0.787069D+01
     12  0.753414D-01  0.104785D+02
 Leave Link  701 at Fri Apr 15 18:54:06 2022, MaxMem=   131072000 cpu:               0.0 elap:               0.1
 (Enter C:\G16W\l702.exe)
 L702 exits ... SP integral derivatives will be done elsewhere.
 Leave Link  702 at Fri Apr 15 18:54:06 2022, MaxMem=   131072000 cpu:               0.0 elap:               0.0
 (Enter C:\G16W\l703.exe)
 Integral derivatives from FoFJK, PRISM(SPDF).
 Compute integral second derivatives, UseDBF=F ICtDFT=           0.
 ICntrl=    100127.
 Calling FoFJK, ICntrl=    100127 FMM=F ISym2X=0 I1Cent= 0 IOpClX= 1 NMat=1 NMatS=1 NMatT=0.
 FoFJK:  IHMeth= 1 ICntrl=  100127 DoSepK=F KAlg= 0 I1Cent=           0 FoldK=F
 IRaf=         0 NMat=       1 IRICut=       1 DoRegI=T DoRafI=F ISym2E= 0 IDoP0=0 IntGTp=1.
 FoFCou: FMM=F IPFlag=           0 FMFlag=      100000 FMFlg1=         800
         NFxFlg=           0 DoJE=F BraDBF=F KetDBF=F FulRan=T
         wScrn=  0.000000 ICntrl=    100127 IOpCl=  1 I1Cent=           0 NGrid=           0
         NMat0=    1 NMatS0=      1 NMatT0=    0 NMatD0=    1 NMtDS0=    0 NMtDT0=    0
 Symmetry not used in FoFCou.
 FoFCou:  KetSym=F NOpSet=  1 NOpAb=1 NOp=  1.
 FoFCou:  CnvScl= 1.00D+00 Thresh= 1.00D-12 IAcrcy=      10.
 PrismS was handed   131065892 working-precision words and    27 shell-pairs
 FoFCou: LinMIO=F DoNuc=F BraDBF=F KetDBF=F HaveP=T PDBF=F HaveZ=T HaveW=F
         NIJTC =       3 NIJTAt=       0 NIJTCD=       0 NIJTT =       3
         IJTBeg=       1 IJTEnd=       3 KLTBeg=       1 KLTEnd=       3
         IPTBeg=       1 IPTEnd=       3 IPTBCv=       1 IPTECv=       3
         IZTBeg=       1 IZTEnd=       3 IZTBCv=       1 IZTECv=       3
         IWTBeg=       4 IWTEnd=       3 IWTBCv=       4 IWTECv=       3
         INTBeg=       1 INTEnd=       0 IFTBCv=       1 IFTECv=       3
 NCel replicated for PrismC:     1
 CoulSu-InSpLW:  IPartL=    0 NPrtUS=    1 NPrtUL=    1 DoSpLW=F IThBeg=    0 IThEnd=    0 NThAct=    1.
 CoulSu:  IncDef=  1024 NBBP=            378 NTPThr=   100 NPartT=    1 Incr=           3 LDynOK=F GPUOK=T.
 CoulSu:  NPrtUS=   1 ThrOK=F IAlg=1 NPAlg=1 LenDen=           0 LWGrdD=           0 DoCopy=F ISkipM=0
          DoSpLW=F IThBeg=    0 IThEnd=    0.
 Enter PrismC:  IPart=  0 JobTyp=22 DoJE=F Cont=F.
 PrismC:  IPart=     0 DynPar=F LinDyn=F Incr=           3 UseFst=F UseS4=T ISplat=2.
 PrismC was handed   131065803 working-precision words and    27 shell-pairs
 IPart=  0 NShTot=         376 NShNF=         376 NShFF=           0 MinMC=      10
           NShCPU=         376 NBCPU=          43 AvBCPU=         8.7
           NShGPU=           0 NBGPU=           0 AvBGPU=         0.0
 CoulSu:  NxtVal=              4 LenVP=      131065804 MinMC=      10.
 Polarizability after L703:
                1             2             3 
      1  0.182753D+02
      2 -0.240119D+01  0.605271D+01
      3 -0.258834D-01 -0.113769D+00  0.662128D+01
 Dipole Derivatives after L703:
                 1             2             3             4             5 
      1   0.223634D+00  0.154297D+00  0.800664D-02  0.115134D-01 -0.110411D+00
      2   0.835286D-01  0.767897D-02 -0.194533D-01  0.138582D-02  0.167805D-01
      3   0.706126D-02 -0.162654D-01  0.313458D+00  0.108095D-02  0.184461D-01
                 6             7             8             9            10 
      1  -0.997816D-02 -0.604011D+00  0.154219D+00 -0.511966D-02  0.368863D+00
      2   0.247454D-01 -0.236984D-01  0.123162D+00 -0.236484D-02 -0.612160D-01
      3  -0.312074D+00 -0.230956D-01  0.109019D-01  0.198332D-01  0.149534D-01
                11            12 
      1  -0.198105D+00  0.709117D-02
      2  -0.147621D+00 -0.292728D-02
      3  -0.130826D-01 -0.212176D-01
 Hessian after L703:
                1             2             3             4             5 
      1  0.280739D+00
      2 -0.232849D+00  0.311102D+00
      3 -0.160252D-01  0.174453D-01  0.599494D-02
      4 -0.244982D+00  0.278709D+00  0.176410D-01  0.551437D+00
      5  0.194227D+00 -0.320838D+00 -0.155791D-01 -0.155869D+00  0.424499D+00
      6  0.144326D-01 -0.186714D-01 -0.180040D-02 -0.190350D-01  0.170151D-01
      7 -0.287221D-01 -0.425773D-01 -0.272578D-02 -0.686348D-01  0.368902D-01
      8  0.448416D-01  0.131227D-01 -0.234598D-02 -0.185985D+00 -0.180839D+00
      9  0.144437D-02  0.150679D-02 -0.110542D-01  0.373436D-02 -0.788881D-03
     10 -0.703531D-02 -0.328303D-02  0.111000D-02 -0.237820D+00 -0.752486D-01
     11 -0.621959D-02 -0.338659D-02  0.479806D-03  0.631444D-01  0.771783D-01
     12  0.148293D-03 -0.280752D-03  0.685970D-02 -0.234034D-02 -0.647127D-03
                6             7             8             9            10 
      6 -0.210325D-01
      7  0.381755D-02  0.512735D+00
      8  0.301566D-02 -0.197250D+00  0.367856D+00
      9  0.362496D-01  0.858289D-02 -0.643519D-02 -0.623101D-01
     10  0.784910D-03 -0.415379D+00  0.338393D+00 -0.137616D-01  0.660234D+00
     11 -0.135945D-02  0.202937D+00 -0.200139D+00  0.571728D-02 -0.259862D+00
     12 -0.134167D-01 -0.967466D-02  0.576551D-02  0.371148D-01  0.118667D-01
               11            12 
     11  0.126348D+00
     12 -0.483763D-02 -0.305577D-01
 Leave Link  703 at Fri Apr 15 18:54:06 2022, MaxMem=   131072000 cpu:               0.0 elap:               0.1
 (Enter C:\G16W\l716.exe)
 FrcOut:
 IF    =        44 IFX   =        56 IFXYZ =        68
 IFFX  =        80 IFFFX =       158 IFLen =        12
 IFFLen=        78 IFFFLn=         0 IEDerv=       158
 LEDerv=       629 IFroze=       957 ICStrt=      1554
 Dipole        =-4.63261787D-01 4.83669557D-01 2.80644138D-02
 DipoleDeriv   = 2.23634018D-01 8.35286186D-02 7.06126204D-03
                 1.54296520D-01 7.67897187D-03-1.62653948D-02
                 8.00664382D-03-1.94532537D-02 3.13458271D-01
                 1.15134457D-02 1.38582024D-03 1.08094846D-03
                -1.10410769D-01 1.67804775D-02 1.84460600D-02
                -9.97815668D-03 2.47453786D-02-3.12073800D-01
                -6.04010544D-01-2.36984249D-02-2.30955875D-02
                 1.54218796D-01 1.23161665D-01 1.09019200D-02
                -5.11966154D-03-2.36484271D-03 1.98331579D-02
                 3.68863080D-01-6.12160140D-02 1.49533770D-02
                -1.98104547D-01-1.47621115D-01-1.30825852D-02
                 7.09117439D-03-2.92728222D-03-2.12176294D-02
 Polarizability= 1.82752991D+01-2.40118696D+00 6.05271354D+00
                -2.58833916D-02-1.13769472D-01 6.62128485D+00
 HyperPolar    = 1.81159718D+01 1.71674930D+01 9.75368765D-01
                 1.74364284D+01 1.44757953D+00 4.97876132D-01
                -2.87218563D+00-7.32127616D-01 2.41620583D+01
                 2.73834331D+00
 Quadrupole    =-1.78777865D-01-5.77332208D-01 7.56110073D-01
                -1.55080663D+00-9.68895270D-02 2.24124809D-02
 VibFq2-Diag1:  N=     12 IV=           5 MDV=   131069602 NE2=    10922466
 Full mass-weighted force constant matrix:
 Low frequencies --- -482.2535 -206.3581 -169.8493   -0.0010   -0.0007   -0.0007
 Low frequencies ---  397.7970  510.4609  989.6784
 OrtVCM:  Ph=1 IPass= 1 DotMx1= 0.00D+00
 OrtVCM:  IS=    1 I=    1 IndO=    1 Dot= 1.00D+00 DotN= 1.00D+00 ElMax1= 6.10D-01 ElMax1N= 6.10D-01
 OrtVCM:  Ph=2 NNew=    0 IAdd=    2 IPass= 1 DotMx2= 0.00D+00
 OrtVCM:  IS=    1 I=    2 IndO=    2 Dot= 1.00D+00 DotN= 1.00D+00 ElMax1= 6.10D-01 ElMax1N= 6.10D-01
 OrtVCM:  Ph=2 NNew=    0 IAdd=    3 IPass= 1 DotMx2= 0.00D+00
 OrtVCM:  IS=    1 I=    3 IndO=    3 Dot= 1.00D+00 DotN= 1.00D+00 ElMax1= 6.10D-01 ElMax1N= 6.10D-01
 OrtVCM:  Ph=2 NNew=    0 IAdd=    4 IPass= 1 DotMx2= 2.17D-19
 OrtVCM:  IS=    1 I=    4 IndO=    4 Dot= 1.00D+00 DotN= 1.00D+00 ElMax1= 7.46D-01 ElMax1N= 7.46D-01
 OrtVCM:  Ph=2 NNew=    0 IAdd=    5 IPass= 1 DotMx2= 1.11D-15
 OrtVCM:  IS=    1 I=    5 IndO=    5 Dot= 1.00D+00 DotN= 1.00D+00 ElMax1= 6.80D-01 ElMax1N= 6.80D-01
 OrtVCM:  Ph=2 NNew=    0 IAdd=    6 IPass= 1 DotMx2= 5.56D-16
 OrtVCM:  IS=    1 I=    6 IndO=    6 Dot= 1.00D+00 DotN= 1.00D+00 ElMax1= 6.63D-01 ElMax1N= 6.63D-01
 OrtVCM:  Ph=1 IPass= 1 DotMx1= 6.76D-01
 OrtVCM:  Ph=1 IPass= 2 DotMx1= 1.94D-16
 OrtVCM:  IS=    1 I=    1 IndO=    7 Dot= 9.70D-01 DotN= 9.70D-01 ElMax1= 9.70D-01 ElMax1N= 9.70D-01
 OrtVCM:  Ph=2 NNew=    0 IAdd=    2 IPass= 1 DotMx2= 2.26D-02
 OrtVCM:  Ph=2 NNew=    0 IAdd=    2 IPass= 2 DotMx2= 8.86D-18
 OrtVCM:  IS=    1 I=    2 IndO=    8 Dot= 8.99D-01 DotN= 8.99D-01 ElMax1= 8.99D-01 ElMax1N= 8.99D-01
 OrtVCM:  Ph=2 NNew=    0 IAdd=    3 IPass= 1 DotMx2= 1.18D-02
 OrtVCM:  Ph=2 NNew=    0 IAdd=    3 IPass= 2 DotMx2= 6.51D-19
 OrtVCM:  IS=    1 I=    3 IndO=    9 Dot= 7.58D-01 DotN= 7.58D-01 ElMax1= 7.58D-01 ElMax1N= 7.58D-01
 OrtVCM:  Ph=2 NNew=    0 IAdd=    4 IPass= 1 DotMx2= 7.88D-02
 OrtVCM:  Ph=2 NNew=    0 IAdd=    4 IPass= 2 DotMx2= 2.88D-17
 OrtVCM:  IS=    1 I=    4 IndO=   10 Dot= 6.53D-01 DotN= 6.53D-01 ElMax1= 6.53D-01 ElMax1N= 6.53D-01
 OrtVCM:  Ph=2 NNew=    0 IAdd=    5 IPass= 1 DotMx2= 2.84D-01
 OrtVCM:  Ph=2 NNew=    0 IAdd=    5 IPass= 2 DotMx2= 5.75D-17
 OrtVCM:  IS=    1 I=    5 IndO=   11 Dot= 1.51D-01 DotN= 1.51D-01 ElMax1= 3.09D-01 ElMax1N= 3.09D-01
 OrtVCM:  Ph=2 NNew=    0 IAdd=    6 IPass= 1 DotMx2= 1.27D-01
 OrtVCM:  Ph=2 NNew=    0 IAdd=    6 IPass= 2 DotMx2= 4.31D-17
 OrtVCM:  IS=    1 I=    6 IndO=    0 Dot= 1.32D-34 DotN= 1.32D-34 ElMax1= 8.16D-18 ElMax1N= 8.16D-18
 SchOr2:  IPass= 1 Test2A= 1.00D-01 IOff=     0 NDo=     6 NNew=     5
 OrtVCM:  Ph=1 IPass= 1 DotMx1= 5.28D-01
 OrtVCM:  Ph=1 IPass= 2 DotMx1= 2.34D-16
 OrtVCM:  IS=    1 I=    1 IndO=   12 Dot= 4.90D-01 DotN= 4.90D-01 ElMax1= 4.90D-01 ElMax1N= 4.90D-01
 SchOr2:  IPass= 1 Test2A= 1.00D-01 IOff=     6 NDo=     1 NNew=     1
 VibFq2-Diag2:  N=      6 IV=           5 MDV=   131069602 NE2=    21844933
 Dipole derivative wrt mode   1:  2.18627D-02 -3.78478D-01  8.65380D+00
 Vibrational polarizability contributions from mode   1       0.0000892       0.0267357      13.9773442
 Dipole derivative wrt mode   2: -1.82460D+00  9.64030D-01 -9.20627D-01
 Vibrational polarizability contributions from mode   2       0.3458140       0.0965357       0.0880389
 Dipole derivative wrt mode   3: -2.80345D+00  1.43025D-01 -4.17430D-01
 Vibrational polarizability contributions from mode   3       0.2163231       0.0005630       0.0047960
 Dipole derivative wrt mode   4:  5.34242D+00  1.79135D+00 -2.26122D-01
 Vibrational polarizability contributions from mode   4       0.4420138       0.0496959       0.0007919
 Dipole derivative wrt mode   5:  8.52674D+00  1.39719D+00  1.62626D-01
 Vibrational polarizability contributions from mode   5       0.6993204       0.0187769       0.0002544
 Dipole derivative wrt mode   6: -9.18334D-01 -1.59002D+00 -7.07516D-02
 Vibrational polarizability contributions from mode   6       0.0015234       0.0045669       0.0000090
 Diagonal vibrational polarizability:
        1.7050839       0.1968741      14.0712345
 NorSel:  MapVib=      1      2      3      4      5      6
 Harmonic frequencies (cm**-1), IR intensities (KM/Mole), Raman scattering
 activities (A**4/AMU), depolarization ratios for plane and unpolarized
 incident light, reduced masses (AMU), force constants (mDyne/A),
 and normal coordinates:
                      1                      2                      3
                      A                      A                      A
 Frequencies --    379.7181               508.9943               988.8002
 Red. masses --      1.3124                 6.5938                12.1008
 Frc consts  --      0.1115                 1.0065                 6.9708
 IR Inten    --     75.0321                 5.1061                 8.0541
  Atom  AN      X      Y      Z        X      Y      Z        X      Y      Z
     1   1     0.02  -0.06   0.99    -0.29  -0.64  -0.26    -0.13   0.20  -0.07
     2   7     0.01  -0.01  -0.04     0.32  -0.11   0.02    -0.55  -0.29   0.01
     3   6     0.01   0.02  -0.13     0.02   0.46   0.02     0.66   0.34   0.01
     4   8    -0.02  -0.01   0.07    -0.27  -0.21  -0.01     0.00  -0.02  -0.01
                      4                      5                      6
                      A                      A                      A
 Frequencies --   1318.2151              1672.6737              3859.7707
 Red. masses --      1.3622                 5.0259                 1.0758
 Frc consts  --      1.3947                 8.2849                 9.4427
 IR Inten    --     31.8015                74.6838                 3.3765
  Atom  AN      X      Y      Z        X      Y      Z        X      Y      Z
     1   1     0.78   0.60   0.00     0.62   0.54   0.01    -0.67   0.73   0.05
     2   7     0.05  -0.06   0.00    -0.10  -0.13   0.00     0.05  -0.05   0.00
     3   6     0.03  -0.03   0.01    -0.33   0.30  -0.01     0.00   0.00   0.00
     4   8    -0.12   0.04   0.00     0.29  -0.14   0.01     0.00   0.00   0.00

 -------------------
 - Thermochemistry -
 -------------------
 Temperature   298.150 Kelvin.  Pressure   1.00000 Atm.
 Atom     1 has atomic number  1 and mass   1.00783
 Atom     2 has atomic number  7 and mass  14.00307
 Atom     3 has atomic number  6 and mass  12.00000
 Atom     4 has atomic number  8 and mass  15.99491
 Molecular mass:    43.00581 amu.
 Principal axes and moments of inertia in atomic units:
                           1         2         3
     Eigenvalues --     9.50858 164.55138 174.03050
           X            0.99971  -0.02404  -0.00209
           Y            0.02406   0.99966   0.01014
           Z            0.00185  -0.01019   0.99995
 This molecule is an asymmetric top.
 Rotational symmetry number  1.
 Rotational temperatures (Kelvin)      9.10903     0.52636     0.49769
 Rotational constants (GHZ):         189.80129    10.96765    10.37026
 Zero-point vibrational energy      52206.1 (Joules/Mol)
                                   12.47755 (Kcal/Mol)
 Warning -- explicit consideration of   2 degrees of freedom as
           vibrations may cause significant error
 Vibrational temperatures:    546.33   732.33  1422.66  1896.62  2406.60
          (Kelvin)           5553.35
 
 Zero-point correction=                           0.019884 (Hartree/Particle)
 Thermal correction to Energy=                    0.023315
 Thermal correction to Enthalpy=                  0.024259
 Thermal correction to Gibbs Free Energy=        -0.004927
 Sum of electronic and zero-point Energies=           -165.436092
 Sum of electronic and thermal Energies=              -165.432661
 Sum of electronic and thermal Enthalpies=            -165.431717
 Sum of electronic and thermal Free Energies=         -165.460903
 
                     E (Thermal)             CV                S
                      KCal/Mol        Cal/Mol-Kelvin    Cal/Mol-Kelvin
 Total                   14.631              9.275             61.428
 Electronic               0.000              0.000              2.183
 Translational            0.889              2.981             37.203
 Rotational               0.889              2.981             20.237
 Vibrational             12.853              3.313              1.805
 Vibration     1          0.750              1.513              1.040
 Vibration     2          0.864              1.230              0.636
                       Q            Log10(Q)             Ln(Q)
 Total Bot       0.184662D+03          2.266379          5.218530
 Total V=0       0.258515D+12         11.412486         26.278220
 Vib (Bot)       0.940039D-09         -9.026854        -20.785100
 Vib (Bot)    1  0.476251D+00         -0.322164         -0.741811
 Vib (Bot)    2  0.320311D+00         -0.494429         -1.138464
 Vib (V=0)       0.131599D+01          0.119253          0.274590
 Vib (V=0)    1  0.119052D+01          0.075736          0.174388
 Vib (V=0)    2  0.109380D+01          0.038938          0.089658
 Electronic      0.300000D+01          0.477121          1.098612
 Translational   0.110852D+08          7.044745         16.221124
 Rotational      0.590700D+04          3.771367          8.683893
 Write normal modes, IRwNMS=   765 IRotNM=-1 NVibU=     6.
 
                                                                  T1
                                                             IR Spectrum
 
     3                                                                       1           1                                           
     8                                                                       6           3          9               5   3            
     6                                                                       7           1          8               0   8            
     0                                                                       3           8          9               9   0            
 
     X                                                                       X           X          X               X   X            
                                                                             X           X          X                   X            
                                                                             X           X                              X            
                                                                             X           X                              X            
                                                                             X           X                              X            
                                                                             X           X                              X            
                                                                             X           X                              X            
                                                                             X           X                              X            
                                                                             X                                          X            
                                                                             X                                          X            
                                                                             X                                          X            
                                                                             X                                          X            
                                                                             X                                          X            
                                                                             X                                          X            
                                                                             X                                          X            
                                                                             X                                          X            
                                                                             X                                          X            
                                                                             X                                          X            
                                                                             X                                          X            
                                                                             X                                          X            
 
 Forces in standard orientation:
 -------------------------------------------------------------------
 Center     Atomic                   Forces (Hartrees/Bohr)
 Number     Number              X              Y              Z
 -------------------------------------------------------------------
      1        1          -0.002100942   -0.003226859    0.000757572
      2        7           0.027433753    0.035561890   -0.000901776
      3        6           0.032769475   -0.076154700    0.000692746
      4        8          -0.058102286    0.043819669   -0.000548542
 -------------------------------------------------------------------
 Cartesian Forces:  Max     0.076154700 RMS     0.034404057
 ***** Axes restored to original set *****
 Rotating derivatives, DoTrsp=F IDiff=-2 LEDeriv=    628 LFDPrp=       0 LDFDPr=       0.
 -------------------------------------------------------------------
 Center     Atomic                   Forces (Hartrees/Bohr)
 Number     Number              X              Y              Z
 -------------------------------------------------------------------
      1        1           0.003708476   -0.000832394   -0.000977150
      2        7          -0.044125369    0.001628343    0.008268760
      3        6           0.026128665   -0.004519527   -0.078553953
      4        8           0.014288228    0.003723577    0.071262343
 -------------------------------------------------------------------
 Cartesian Forces:  Max     0.078553953 RMS     0.034404057
 From PutF, contents of force:
   1    0.9771498870D-03
   2    0.3647244169D-01
   3    0.7035996913D-01
   4   -0.7373724315D-02
   5   -0.4223402873D-01
   6    0.1581560754D-02
 -----------------------------------------------------------------------------------------------
                       Internal Coordinate Forces (Hartree/Bohr or radian)
  Cent   Atom   N1       Length/X         N2         Alpha/Y        N3         Beta/Z          J
 -----------------------------------------------------------------------------------------------
      1  H 
      2  N        1   0.000977(     1)
      3  C        2   0.036472(     2)      1  -0.007374(     4)
      4  O        3   0.070360(     3)      2  -0.042234(     5)      1   0.001582(     6)     0
 -----------------------------------------------------------------------------------------------
 Internal  Forces:  Max     0.070359969 RMS     0.036792901
 Force constants in Cartesian coordinates: 
                1             2             3             4             5 
      1  0.628783D-01
      2 -0.274489D-03  0.492557D-02
      3  0.118697D-01  0.384511D-03  0.530033D+00
      4 -0.436225D-01  0.167773D-02 -0.320267D-01  0.340481D+00
      5  0.112119D-02 -0.765306D-03 -0.250413D-03 -0.199379D-02 -0.219649D-01
      6  0.525672D-01 -0.108663D-02 -0.523233D+00  0.811609D-01  0.431405D-02
      7 -0.912289D-02 -0.255706D-02  0.229377D-01 -0.192177D+00  0.446463D-02
      8 -0.913067D-03 -0.110280D-01 -0.134106D-03  0.121411D-01  0.360903D-01
      9 -0.646465D-01  0.654021D-03 -0.650271D-02  0.175461D+00 -0.538916D-02
     10 -0.101330D-01  0.115382D-02 -0.278072D-02 -0.104682D+00 -0.359203D-02
     11  0.663615D-04  0.686772D-02  0.000000D+00 -0.118250D-01 -0.133600D-01
     12  0.209576D-03  0.480996D-04 -0.296977D-03 -0.224595D+00  0.132552D-02
                6             7             8             9            10 
      6  0.636388D+00
      7 -0.472687D-01  0.252835D+00
      8 -0.864850D-03  0.405451D-02 -0.599608D-01
      9 -0.571378D-01  0.949036D-01  0.414842D-01  0.625407D+00
     10 -0.864594D-01 -0.515347D-01 -0.152825D-01 -0.205718D+00  0.166349D+00
     11 -0.236257D-02 -0.596208D-02  0.348985D-01 -0.367490D-01  0.177207D-01
     12 -0.560172D-01 -0.705725D-01 -0.404852D-01 -0.561767D+00  0.294958D+00
               11            12 
     11 -0.284062D-01
     12  0.391116D-01  0.618081D+00
 FCInt: Cartesian first derivatives: 
                 1             2             3             4 
      1   0.370848D-02 -0.441254D-01  0.261287D-01  0.142882D-01
      2  -0.832394D-03  0.162834D-02 -0.451953D-02  0.372358D-02
      3  -0.977150D-03  0.826876D-02 -0.785540D-01  0.712623D-01
 FCInt: Cartesian force constants: 
                1             2             3             4             5 
      1  0.628783D-01
      2 -0.274489D-03  0.492557D-02
      3  0.118697D-01  0.384511D-03  0.530033D+00
      4 -0.436225D-01  0.167773D-02 -0.320267D-01  0.340481D+00
      5  0.112119D-02 -0.765306D-03 -0.250413D-03 -0.199379D-02 -0.219649D-01
      6  0.525672D-01 -0.108663D-02 -0.523233D+00  0.811609D-01  0.431405D-02
      7 -0.912289D-02 -0.255706D-02  0.229377D-01 -0.192177D+00  0.446463D-02
      8 -0.913067D-03 -0.110280D-01 -0.134106D-03  0.121411D-01  0.360903D-01
      9 -0.646465D-01  0.654021D-03 -0.650271D-02  0.175461D+00 -0.538916D-02
     10 -0.101330D-01  0.115382D-02 -0.278072D-02 -0.104682D+00 -0.359203D-02
     11  0.663615D-04  0.686772D-02  0.000000D+00 -0.118250D-01 -0.133600D-01
     12  0.209576D-03  0.480996D-04 -0.296977D-03 -0.224595D+00  0.132552D-02
                6             7             8             9            10 
      6  0.636388D+00
      7 -0.472687D-01  0.252835D+00
      8 -0.864850D-03  0.405451D-02 -0.599608D-01
      9 -0.571378D-01  0.949036D-01  0.414842D-01  0.625407D+00
     10 -0.864594D-01 -0.515347D-01 -0.152825D-01 -0.205718D+00  0.166349D+00
     11 -0.236257D-02 -0.596208D-02  0.348985D-01 -0.367490D-01  0.177207D-01
     12 -0.560172D-01 -0.705725D-01 -0.404852D-01 -0.561767D+00  0.294958D+00
               11            12 
     11 -0.284062D-01
     12  0.391116D-01  0.618081D+00
 Internal force constants: 
                1             2             3             4             5 
      1  0.530033D+00
      2 -0.172574D-01  0.363047D+00
      3  0.149049D-02  0.267576D+00  0.766035D+00
      4  0.273096D-01  0.743487D-01  0.849032D-02  0.250533D+00
      5  0.538035D-02  0.461975D-01  0.217639D-01  0.415567D-01  0.267196D+00
      6 -0.648571D-04  0.215473D-02 -0.174219D-02 -0.549161D-03 -0.289902D-02
                6 
      6  0.216320D-01
 Frcnst in PutFF: 
                1             2             3             4             5 
      1  0.530033D+00
      2 -0.172574D-01  0.363047D+00
      3  0.149049D-02  0.267576D+00  0.766035D+00
      4  0.273096D-01  0.743487D-01  0.849032D-02  0.250533D+00
      5  0.538035D-02  0.461975D-01  0.217639D-01  0.415567D-01  0.267196D+00
      6 -0.648571D-04  0.215473D-02 -0.174219D-02 -0.549161D-03 -0.289902D-02
                6 
      6  0.216320D-01
 Force constants in internal coordinates: 
                1             2             3             4             5 
      1  0.530033D+00
      2 -0.172574D-01  0.363047D+00
      3  0.149049D-02  0.267576D+00  0.766035D+00
      4  0.273096D-01  0.743487D-01  0.849032D-02  0.250533D+00
      5  0.538035D-02  0.461975D-01  0.217639D-01  0.415567D-01  0.267196D+00
      6 -0.648571D-04  0.215473D-02 -0.174219D-02 -0.549161D-03 -0.289902D-02
                6 
      6  0.216320D-01
 Final forces over variables, Energy=-1.65455976D+02:
  9.77149887D-04 3.64724417D-02 7.03599691D-02-7.37372432D-03
 -4.22340287D-02 1.58156075D-03
 Leave Link  716 at Fri Apr 15 18:54:06 2022, MaxMem=   131072000 cpu:               0.0 elap:               0.0
 (Enter C:\G16W\l103.exe)

 GradGradGradGradGradGradGradGradGradGradGradGradGradGradGradGradGradGrad
 Berny optimization.
 Search for a local minimum.
 Step number   1 out of a maximum of    2
 All quantities printed in internal units (Hartrees-Bohrs-Radians)
 Second derivative matrix not updated -- analytic derivatives used.
 The second derivative matrix:
                          B1        B2        B3        A1        A2
           B1           0.53003
           B2          -0.01726   0.36305
           B3           0.00149   0.26758   0.76603
           A1           0.02731   0.07435   0.00849   0.25053
           A2           0.00538   0.04620   0.02176   0.04156   0.26720
           D1          -0.00006   0.00215  -0.00174  -0.00055  -0.00290
                          D1
           D1           0.02163
 ITU=  0
     Eigenvalues ---    0.02155   0.17291   0.22995   0.33578   0.53327
     Eigenvalues ---    0.90502
 Angle between quadratic step and forces=  35.52 degrees.
 Linear search not attempted -- first point.
 Variable       Old X    -DE/DX   Delta X   Delta X   Delta X     New X
                                 (Linear)    (Quad)   (Total)
    B1        1.98834   0.00098   0.00000   0.00723   0.00723   1.99557
    B2        2.62731   0.03647   0.00000   0.07580   0.07580   2.70310
    B3        2.27412   0.07036   0.00000   0.07066   0.07066   2.34478
    A1        1.86997  -0.00737   0.00000  -0.02640  -0.02640   1.84358
    A2        2.32525  -0.04223   0.00000  -0.17245  -0.17245   2.15281
    D1        3.06846   0.00158   0.00000   0.04749   0.04749   3.11595
         Item               Value     Threshold  Converged?
 Maximum Force            0.070360     0.000450     NO 
 RMS     Force            0.036793     0.000300     NO 
 Maximum Displacement     0.172449     0.001800     NO 
 RMS     Displacement     0.085129     0.001200     NO 
 Predicted change in Energy=-7.648072D-03
                       ----------------------------
                       ! Non-Optimized Parameters !
                       ! (Angstroms and Degrees)  !
 ----------------------                            ----------------------
 !      Name          Value   Derivative information (Atomic Units)     !
 ------------------------------------------------------------------------
 !       B1          1.056    -DE/DX =    0.001                         !
 !       B2          1.4304   -DE/DX =    0.0365                        !
 !       B3          1.2408   -DE/DX =    0.0704                        !
 !       A1        105.6291   -DE/DX =   -0.0074                        !
 !       A2        123.3467   -DE/DX =   -0.0422                        !
 !       D1        178.5309   -DE/DX =    0.0016                        !
 ------------------------------------------------------------------------
 GradGradGradGradGradGradGradGradGradGradGradGradGradGradGradGradGradGrad

 Leave Link  103 at Fri Apr 15 18:54:06 2022, MaxMem=   131072000 cpu:               0.0 elap:               0.0
 (Enter C:\G16W\l9999.exe)

 ----------------------------------------------------------------------

 Electric dipole moment (input orientation):
 (Debye = 10**-18 statcoulomb cm , SI units = C m)
                  (au)            (Debye)         (10**-30 SI)
   Tot        0.670325D+00      0.170380D+01      0.568325D+01
   x         -0.244165D-01     -0.620605D-01     -0.207012D+00
   y         -0.260251D-02     -0.661491D-02     -0.220650D-01
   z         -0.669875D+00     -0.170265D+01     -0.567944D+01

 Dipole polarizability, Alpha (input orientation).
 (esu units = cm**3 , SI units = C**2 m**2 J**-1)
 Alpha(0;0):
               (au)            (10**-24 esu)      (10**-40 SI)
   iso        0.103164D+02      0.152874D+01      0.170095D+01
   aniso      0.126532D+02      0.187501D+01      0.208623D+01
   xx         0.104889D+02      0.155429D+01      0.172938D+01
   yx         0.167500D+00      0.248209D-01      0.276170D-01
   yy         0.663999D+01      0.983945D+00      0.109479D+01
   zx         0.634864D+01      0.940771D+00      0.104675D+01
   zy         0.350181D+00      0.518914D-01      0.577370D-01
   zz         0.138204D+02      0.204797D+01      0.227868D+01

 First dipole hyperpolarizability, Beta (input orientation).
 ||, _|_  parallel and perpendicular components, (z) with respect to z axis,
 vector components x,y,z.  Values do not include the 1/n! factor of 1/2.
 (esu units = statvolt**-1 cm**4 , SI units = C**3 m**3 J**-2)
 Beta(0;0,0):
               (au)            (10**-30 esu)      (10**-50 SI)
   || (z)    -0.190266D+02     -0.164375D+00     -0.610063D-01
   _|_(z)    -0.634221D+01     -0.547918D-01     -0.203354D-01
   x          0.158357D+03      0.136808D+01      0.507749D+00
   y         -0.167674D+01     -0.144858D-01     -0.537625D-02
   z         -0.951332D+02     -0.821877D+00     -0.305031D+00
   ||         0.369486D+02      0.319207D+00      0.118471D+00
   xxx        0.327508D+02      0.282941D+00      0.105011D+00
   xxy        0.238348D+00      0.205914D-02      0.764228D-03
   yxy        0.156844D+02      0.135501D+00      0.502898D-01
   yyy       -0.204069D+00     -0.176300D-02     -0.654319D-03
   xxz        0.472732D+01      0.408404D-01      0.151575D-01
   yxz        0.139023D+01      0.120105D-01      0.445759D-02
   yyz       -0.187164D+02     -0.161695D+00     -0.600117D-01
   zxz        0.435044D+01      0.375844D-01      0.139491D-01
   zyz       -0.593193D+00     -0.512473D-02     -0.190199D-02
   zzz       -0.177220D+02     -0.153104D+00     -0.568230D-01

 ----------------------------------------------------------------------

 Dipole orientation:
     1          0.00000000          0.00000000          0.00000000
     7         -0.07242513          0.00771966         -1.98700890
     6          2.40830055          0.01090366         -2.85229625
     8          3.33465176         -0.10218895         -4.92611151

 Electric dipole moment (dipole orientation):
 (Debye = 10**-18 statcoulomb cm , SI units = C m)
                  (au)            (Debye)         (10**-30 SI)
   Tot        0.670325D+00      0.170380D+01      0.568325D+01
   x          0.000000D+00      0.000000D+00      0.000000D+00
   y          0.000000D+00      0.000000D+00      0.000000D+00
   z          0.670325D+00      0.170380D+01      0.568325D+01

 Dipole polarizability, Alpha (dipole orientation).
 (esu units = cm**3 , SI units = C**2 m**2 J**-1)
 Alpha(0;0):
               (au)            (10**-24 esu)      (10**-40 SI)
   iso        0.103164D+02      0.152874D+01      0.170095D+01
   aniso      0.126532D+02      0.187501D+01      0.208623D+01
   xx         0.100311D+02      0.148646D+01      0.165391D+01
   yx        -0.130760D+00     -0.193767D-01     -0.215594D-01
   yy         0.663736D+01      0.983555D+00      0.109435D+01
   zx        -0.621105D+01     -0.920383D+00     -0.102406D+01
   zy         0.326823D+00      0.484302D-01      0.538859D-01
   zz         0.142808D+02      0.211620D+01      0.235459D+01

 First dipole hyperpolarizability, Beta (dipole orientation).
 ||, _|_  parallel and perpendicular components, (z) with respect to z axis,
 vector components x,y,z.  Values do not include the 1/n! factor of 1/2.
 (esu units = statvolt**-1 cm**4 , SI units = C**3 m**3 J**-2)
 Beta(0;0,0):
               (au)            (10**-30 esu)      (10**-50 SI)
   || (z)     0.178615D+02      0.154310D+00      0.572706D-01
   _|_(z)     0.595385D+01      0.514366D-01      0.190902D-01
   x          0.161717D+03      0.139711D+01      0.518524D+00
   y          0.131858D+01      0.113915D-01      0.422785D-02
   z          0.893077D+02      0.771549D+00      0.286353D+00
   ||         0.369486D+02      0.319207D+00      0.118471D+00
   xxx        0.321879D+02      0.278078D+00      0.103206D+00
   xxy       -0.114421D+00     -0.988512D-03     -0.366877D-03
   yxy        0.163446D+02      0.141204D+00      0.524066D-01
   yyy       -0.105780D-01     -0.913858D-04     -0.339169D-04
   xxz       -0.555723D+01     -0.480102D-01     -0.178185D-01
   yxz        0.146113D+01      0.126230D-01      0.468490D-02
   yyz        0.181288D+02      0.156619D+00      0.581275D-01
   zxz        0.537325D+01      0.464207D-01      0.172286D-01
   zyz        0.564527D+00      0.487707D-02      0.181008D-02
   zzz        0.171977D+02      0.148575D+00      0.551420D-01

 ----------------------------------------------------------------------

 Test job not archived.
 1|1|UNPC-DESKTOP-RNC6JTU|Freq|UHF|STO-3G|C1H1N1O1(3)|BNULK|15-Apr-2022
 |1||#p sto-3g scf=maxcycle=999 freq=noraman IOP(7/33=1) hf||T1||0,3|H|
 N,1,B1|C,2,B2,1,A1|O,3,B3,2,A2,1,D1,0||B1=1.052186|B2=1.39031|B3=1.203
 413|A1=107.14165|A2=133.227244|D1=175.809694||Version=EM64W-G16RevA.03
 |State=3-A|HF=-165.455976|S2=2.2069|S2-1=0.|S2A=2.00461|RMSD=8.278e-00
 9|RMSF=3.440e-002|ZeroPoint=0.0198842|Thermal=0.0233152|Dipole=-0.0244
 165,-0.0026025,-0.6698749|DipoleDeriv=0.2462377,0.0009327,0.1290286,-0
 .003739,0.3144761,0.0036585,0.0583796,0.0012001,-0.0159426,-0.040146,0
 .0085252,-0.0528106,0.0096075,-0.3131808,-0.0071091,0.0591455,0.004076
 2,0.0695469,-0.2180414,-0.0210324,-0.2790844,-0.0246277,0.0184468,-0.0
 124291,-0.45719,-0.0329018,-0.2614211,0.0119496,0.0115746,0.2028664,0.
 0187592,-0.0197421,0.0158797,0.3396649,0.0276255,0.2078168|Polar=10.48
 88921,0.1674999,6.6399912,6.3486369,0.3501808,13.8204142|HyperPolar=32
 .7508079,0.2383475,15.6843825,-0.204069,4.7273244,1.3902332,-18.716438
 7,4.3504408,-0.5931935,-17.7219522|Quadrupole=-1.8958526,0.7499174,1.1
 459351,-0.0193794,0.3791141,-0.0661514|PG=C01 [X(C1H1N1O1)]|NImag=0||0
 .06287835,-0.00027449,0.00492557,0.01186972,0.00038451,0.53003275,-0.0
 4362251,0.00167773,-0.03202667,0.34048108,0.00112119,-0.00076531,-0.00
 025041,-0.00199379,-0.02196494,0.05256715,-0.00108663,-0.52323307,0.08
 116094,0.00431405,0.63638809,-0.00912289,-0.00255706,0.02293766,-0.192
 17698,0.00446463,-0.04726872,0.25283457,-0.00091307,-0.01102799,-0.000
 13411,0.01214107,0.03609027,-0.00086485,0.00405451,-0.05996082,-0.0646
 4645,0.00065402,-0.00650271,0.17546097,-0.00538916,-0.05713785,0.09490
 357,0.04148418,0.62540748,-0.01013295,0.00115382,-0.00278072,-0.104681
 58,-0.00359203,-0.08645938,-0.05153471,-0.01528252,-0.20571809,0.16634
 924,0.00006636,0.00686772,0.,-0.01182501,-0.01336003,-0.00236257,-0.00
 596208,0.03489854,-0.03674904,0.01772072,-0.02840623,0.00020958,0.0000
 4810,-0.00029698,-0.22459524,0.00132552,-0.05601717,-0.07057251,-0.040
 48522,-0.56176693,0.29495818,0.03911160,0.61808108||-0.00370848,0.0008
 3239,0.00097715,0.04412537,-0.00162834,-0.00826876,-0.02612866,0.00451
 953,0.07855395,-0.01428823,-0.00372358,-0.07126234|||@


 I WANT TO KNOW HOW GOD CREATED THE WORLD.  I AM NOT INTERESTED IN
 THIS OR THAT PHENOMENON, IN THE SPECTRUM OF THIS OR THAT ELEMENT.
 I WANT TO KNOW HIS THOUGHTS, THE REST ARE DETAILS.
     -- ALBERT EINSTEIN
 Job cpu time:       0 days  0 hours  0 minutes  2.0 seconds.
 Elapsed time:       0 days  0 hours  0 minutes  1.1 seconds.
 File lengths (MBytes):  RWF=      6 Int=      0 D2E=      0 Chk=      1 Scr=      1
 Normal termination of Gaussian 16 at Fri Apr 15 18:54:06 2022.
