 Entering Gaussian System, Link 0=g16
 Input=State1_5.gjf
 Output=State1_5.out
 Initial command:
 C:\G16W\l1.exe ".\Gau-7256.inp" "State1_5.out" /scrdir=".\"
 Entering Link 1 = C:\G16W\l1.exe PID=     10560.
  
 Copyright (c) 1988,1990,1992,1993,1995,1998,2003,2009,2016,
            Gaussian, Inc.  All Rights Reserved.
  
 This is part of the Gaussian(R) 16 program.  It is based on
 the Gaussian(R) 09 system (copyright 2009, Gaussian, Inc.),
 the Gaussian(R) 03 system (copyright 2003, Gaussian, Inc.),
 the Gaussian(R) 98 system (copyright 1998, Gaussian, Inc.),
 the Gaussian(R) 94 system (copyright 1995, Gaussian, Inc.),
 the Gaussian 92(TM) system (copyright 1992, Gaussian, Inc.),
 the Gaussian 90(TM) system (copyright 1990, Gaussian, Inc.),
 the Gaussian 88(TM) system (copyright 1988, Gaussian, Inc.),
 the Gaussian 86(TM) system (copyright 1986, Carnegie Mellon
 University), and the Gaussian 82(TM) system (copyright 1983,
 Carnegie Mellon University). Gaussian is a federally registered
 trademark of Gaussian, Inc.
  
 This software contains proprietary and confidential information,
 including trade secrets, belonging to Gaussian, Inc.
  
 This software is provided under written license and may be
 used, copied, transmitted, or stored only in accord with that
 written license.
  
 The following legend is applicable only to US Government
 contracts under FAR:
  
                    RESTRICTED RIGHTS LEGEND
  
 Use, reproduction and disclosure by the US Government is
 subject to restrictions as set forth in subparagraphs (a)
 and (c) of the Commercial Computer Software - Restricted
 Rights clause in FAR 52.227-19.
  
 Gaussian, Inc.
 340 Quinnipiac St., Bldg. 40, Wallingford CT 06492
  
  
 ---------------------------------------------------------------
 Warning -- This program may not be used in any manner that
 competes with the business of Gaussian, Inc. or will provide
 assistance to any competitor of Gaussian, Inc.  The licensee
 of this program is prohibited from giving any competitor of
 Gaussian, Inc. access to this program.  By using this program,
 the user acknowledges that Gaussian, Inc. is engaged in the
 business of creating and licensing software in the field of
 computational chemistry and represents and warrants to the
 licensee that it is not a competitor of Gaussian, Inc. and that
 it will not use this program in any manner prohibited above.
 ---------------------------------------------------------------
  

 Cite this work as:
 Gaussian 16, Revision A.03,
 M. J. Frisch, G. W. Trucks, H. B. Schlegel, G. E. Scuseria, 
 M. A. Robb, J. R. Cheeseman, G. Scalmani, V. Barone, 
 G. A. Petersson, H. Nakatsuji, X. Li, M. Caricato, A. V. Marenich, 
 J. Bloino, B. G. Janesko, R. Gomperts, B. Mennucci, H. P. Hratchian, 
 J. V. Ortiz, A. F. Izmaylov, J. L. Sonnenberg, D. Williams-Young, 
 F. Ding, F. Lipparini, F. Egidi, J. Goings, B. Peng, A. Petrone, 
 T. Henderson, D. Ranasinghe, V. G. Zakrzewski, J. Gao, N. Rega, 
 G. Zheng, W. Liang, M. Hada, M. Ehara, K. Toyota, R. Fukuda, 
 J. Hasegawa, M. Ishida, T. Nakajima, Y. Honda, O. Kitao, H. Nakai, 
 T. Vreven, K. Throssell, J. A. Montgomery, Jr., J. E. Peralta, 
 F. Ogliaro, M. J. Bearpark, J. J. Heyd, E. N. Brothers, K. N. Kudin, 
 V. N. Staroverov, T. A. Keith, R. Kobayashi, J. Normand, 
 K. Raghavachari, A. P. Rendell, J. C. Burant, S. S. Iyengar, 
 J. Tomasi, M. Cossi, J. M. Millam, M. Klene, C. Adamo, R. Cammi, 
 J. W. Ochterski, R. L. Martin, K. Morokuma, O. Farkas, 
 J. B. Foresman, and D. J. Fox, Gaussian, Inc., Wallingford CT, 2016.
 
 ******************************************
 Gaussian 16:  EM64W-G16RevA.03 17-Dec-2016
                15-Apr-2022 
 ******************************************
 %mem=1000mb
 %chk=LiuKun1.chk
 ------------------------------------------------------
 #p sto-3g scf=maxcycle=999 freq=noraman IOP(7/33=1) hf
 ------------------------------------------------------
 1/10=4,30=1,38=1/1,3;
 2/12=2,17=6,18=5,40=1/2;
 3/6=3,11=9,25=1,30=1,71=2,140=1/1,2,3;
 4//1;
 5/5=2,7=999,38=5,98=1/2;
 8/6=4,10=90,11=11/1;
 11/6=1,8=1,9=11,15=111,16=1/1,2,10;
 10/6=1/2;
 6/7=2,8=2,9=2,10=2,28=1/1;
 7/8=1,10=1,25=1,33=1/1,2,3,16;
 1/10=4,30=1/3;
 99//99;
 Leave Link    1 at Fri Apr 15 18:54:10 2022, MaxMem=   131072000 cpu:               0.0 elap:               0.1
 (Enter C:\G16W\l101.exe)
 --
 T1
 --
 Symbolic Z-matrix:
 Charge =  0 Multiplicity = 1
 H
 N                    1    B1
 C                    2    B2       1    A1
 O                    3    B3       2    A2       1    D1       0
       Variables:
  B1                    1.05085                  
  B2                    1.36263                  
  B3                    1.23456                  
  A1                  107.69446                  
  A2                  134.13625                  
  D1                  179.99618                  
 
 ITRead=  0  0  0  0
 MicOpt= -1 -1 -1 -1
 NAtoms=      4 NQM=        4 NQMF=       0 NMMI=      0 NMMIF=      0
                NMic=       0 NMicF=      0.
                    Isotopes and Nuclear Properties:
 (Nuclear quadrupole moments (NQMom) in fm**2, nuclear magnetic moments (NMagM)
  in nuclear magnetons)

  Atom         1           2           3           4
 IAtWgt=           1          14          12          16
 AtmWgt=   1.0078250  14.0030740  12.0000000  15.9949146
 NucSpn=           1           2           0           0
 AtZEff=   0.0000000   0.0000000   0.0000000   0.0000000
 NQMom=    0.0000000   2.0440000   0.0000000   0.0000000
 NMagM=    2.7928460   0.4037610   0.0000000   0.0000000
 AtZNuc=   1.0000000   7.0000000   6.0000000   8.0000000
 Leave Link  101 at Fri Apr 15 18:54:11 2022, MaxMem=   131072000 cpu:               1.0 elap:               0.3
 (Enter C:\G16W\l103.exe)

 GradGradGradGradGradGradGradGradGradGradGradGradGradGradGradGradGradGrad
 Berny optimization.
 Initialization pass.
                       ----------------------------
                       !    Initial Parameters    !
                       ! (Angstroms and Degrees)  !
 ----------------------                            ----------------------
 !      Name          Value   Derivative information (Atomic Units)     !
 ------------------------------------------------------------------------
 !       B1          1.0509   calculate D2E/DX2 analytically            !
 !       B2          1.3626   calculate D2E/DX2 analytically            !
 !       B3          1.2346   calculate D2E/DX2 analytically            !
 !       A1        107.6945   calculate D2E/DX2 analytically            !
 !       A2        134.1362   calculate D2E/DX2 analytically            !
 !       D1        179.9962   calculate D2E/DX2 analytically            !
 ------------------------------------------------------------------------
 Trust Radius=3.00D-01 FncErr=1.00D-07 GrdErr=1.00D-07 EigMax=2.50D+02 EigMin=1.00D-04
 Number of steps in this run=      2 maximum allowed number of steps=      2.
 GradGradGradGradGradGradGradGradGradGradGradGradGradGradGradGradGradGrad

 Leave Link  103 at Fri Apr 15 18:54:11 2022, MaxMem=   131072000 cpu:               0.0 elap:               0.0
 (Enter C:\G16W\l202.exe)
                          Input orientation:                          
 ---------------------------------------------------------------------
 Center     Atomic      Atomic             Coordinates (Angstroms)
 Number     Number       Type             X           Y           Z
 ---------------------------------------------------------------------
      1          1           0        0.000000    0.000000    0.000000
      2          7           0        0.000000    0.000000    1.050854
      3          6           0        1.298162    0.000000    1.465012
      4          8           0        1.847897    0.000059    2.570420
 ---------------------------------------------------------------------
                    Distance matrix (angstroms):
                    1          2          3          4
     1  H    0.000000
     2  N    1.050854   0.000000
     3  C    1.957418   1.362627   0.000000
     4  O    3.165720   2.392448   1.234559   0.000000
 Stoichiometry    CHNO
 Framework group  C1[X(CHNO)]
 Deg. of freedom     6
 Full point group                 C1      NOp   1
 Largest Abelian subgroup         C1      NOp   1
 Largest concise Abelian subgroup C1      NOp   1
                         Standard orientation:                         
 ---------------------------------------------------------------------
 Center     Atomic      Atomic             Coordinates (Angstroms)
 Number     Number       Type             X           Y           Z
 ---------------------------------------------------------------------
      1          1           0       -1.883699    0.537238    0.000041
      2          7           0       -1.173823   -0.237597   -0.000003
      3          6           0        0.063136    0.333968   -0.000011
      4          8           0        1.215206   -0.109734    0.000006
 ---------------------------------------------------------------------
 Rotational constants (GHZ):         195.7562001          10.8725681          10.3004661
 Leave Link  202 at Fri Apr 15 18:54:11 2022, MaxMem=   131072000 cpu:               0.0 elap:               0.0
 (Enter C:\G16W\l301.exe)
 Standard basis: STO-3G (5D, 7F)
 Ernie: Thresh=  0.10000D-02 Tol=  0.10000D-05 Strict=F.
 There are    16 symmetry adapted cartesian basis functions of A   symmetry.
 There are    16 symmetry adapted basis functions of A   symmetry.
    16 basis functions,    48 primitive gaussians,    16 cartesian basis functions
    11 alpha electrons       11 beta electrons
       nuclear repulsion energy        55.7560519227 Hartrees.
 IExCor=    0 DFT=F Ex=HF Corr=None ExCW=0 ScaHFX=  1.000000
 ScaDFX=  1.000000  1.000000  1.000000  1.000000 ScalE2=  1.000000  1.000000
 IRadAn=      5 IRanWt=     -1 IRanGd=            0 ICorTp=0 IEmpDi=  4
 NAtoms=    4 NActive=    4 NUniq=    4 SFac= 1.00D+00 NAtFMM=   60 NAOKFM=F Big=F
 Integral buffers will be    131072 words long.
 Raffenetti 1 integral format.
 Two-electron integral symmetry is turned on.
 Leave Link  301 at Fri Apr 15 18:54:11 2022, MaxMem=   131072000 cpu:               0.0 elap:               0.0
 (Enter C:\G16W\l302.exe)
 NPDir=0 NMtPBC=     1 NCelOv=     1 NCel=       1 NClECP=     1 NCelD=      1
         NCelK=      1 NCelE2=     1 NClLst=     1 CellRange=     0.0.
 One-electron integrals computed using PRISM.
 One-electron integral symmetry used in STVInt
 NBasis=    16 RedAO= T EigKep=  2.65D-01  NBF=    16
 NBsUse=    16 1.00D-06 EigRej= -1.00D+00 NBFU=    16
 Leave Link  302 at Fri Apr 15 18:54:11 2022, MaxMem=   131072000 cpu:               0.0 elap:               0.1
 (Enter C:\G16W\l303.exe)
 DipDrv:  MaxL=1.
 Leave Link  303 at Fri Apr 15 18:54:11 2022, MaxMem=   131072000 cpu:               0.0 elap:               0.0
 (Enter C:\G16W\l401.exe)
 ExpMin= 1.69D-01 ExpMax= 1.31D+02 ExpMxC= 1.31D+02 IAcc=3 IRadAn=         5 AccDes= 0.00D+00
 Harris functional with IExCor=  205 and IRadAn=       5 diagonalized for initial guess.
 HarFok:  IExCor=  205 AccDes= 0.00D+00 IRadAn=         5 IDoV= 1 UseB2=F ITyADJ=14
 ICtDFT=  3500011 ScaDFX=  1.000000  1.000000  1.000000  1.000000
 FoFCou: FMM=F IPFlag=           0 FMFlag=      100000 FMFlg1=           0
         NFxFlg=           0 DoJE=T BraDBF=F KetDBF=T FulRan=T
         wScrn=  0.000000 ICntrl=       500 IOpCl=  0 I1Cent=   200000004 NGrid=           0
         NMat0=    1 NMatS0=      1 NMatT0=    0 NMatD0=    1 NMtDS0=    0 NMtDT0=    0
 Petite list used in FoFCou.
 Harris En= -165.514081054848    
 JPrj=0 DoOrth=F DoCkMO=F.
 Leave Link  401 at Fri Apr 15 18:54:11 2022, MaxMem=   131072000 cpu:               0.0 elap:               0.2
 (Enter C:\G16W\l502.exe)
 Keep R1 ints in memory in canonical form, NReq=814141.
 FoFCou: FMM=F IPFlag=           0 FMFlag=           0 FMFlg1=           0
         NFxFlg=           0 DoJE=F BraDBF=F KetDBF=F FulRan=T
         wScrn=  0.000000 ICntrl=       600 IOpCl=  0 I1Cent=           0 NGrid=           0
         NMat0=    1 NMatS0=    136 NMatT0=    0 NMatD0=    1 NMtDS0=    0 NMtDT0=    0
 Symmetry not used in FoFCou.
 Two-electron integral symmetry not used.
 Closed shell SCF:
 Using DIIS extrapolation, IDIIS=  1040.
 NGot=   131072000 LenX=   131061257 LenY=   131060375
 Requested convergence on RMS density matrix=1.00D-08 within 999 cycles.
 Requested convergence on MAX density matrix=1.00D-06.
 Requested convergence on             energy=1.00D-06.
 No special actions if energy rises.

 Cycle   1  Pass 1  IDiag  1:
 E= -165.409716613697    
 DIIS: error= 4.68D-02 at cycle   1 NSaved=   1.
 NSaved= 1 IEnMin= 1 EnMin= -165.409716613697     IErMin= 1 ErrMin= 4.68D-02
 ErrMax= 4.68D-02  0.00D+00 EMaxC= 1.00D-01 BMatC= 4.75D-02 BMatP= 4.75D-02
 IDIUse=3 WtCom= 5.32D-01 WtEn= 4.68D-01
 Coeff-Com:  0.100D+01
 Coeff-En:   0.100D+01
 Coeff:      0.100D+01
 Gap=     0.399 Goal=   None    Shift=    0.000
 GapD=    0.399 DampG=1.000 DampE=0.500 DampFc=0.5000 IDamp=-1.
 Damping current iteration by 5.00D-01
 RMSDP=2.13D-02 MaxDP=1.23D-01              OVMax= 0.00D+00

 Cycle   2  Pass 1  IDiag  1:
 E= -165.431743345838     Delta-E=       -0.022026732141 Rises=F Damp=T
 DIIS: error= 1.96D-02 at cycle   2 NSaved=   2.
 NSaved= 2 IEnMin= 2 EnMin= -165.431743345838     IErMin= 2 ErrMin= 1.96D-02
 ErrMax= 1.96D-02  0.00D+00 EMaxC= 1.00D-01 BMatC= 7.32D-03 BMatP= 4.75D-02
 IDIUse=3 WtCom= 8.04D-01 WtEn= 1.96D-01
 Coeff-Com: -0.348D+00 0.135D+01
 Coeff-En:   0.000D+00 0.100D+01
 Coeff:     -0.280D+00 0.128D+01
 Gap=     0.479 Goal=   None    Shift=    0.000
 RMSDP=6.56D-03 MaxDP=2.85D-02 DE=-2.20D-02 OVMax= 0.00D+00

 Cycle   3  Pass 1  IDiag  1:
 E= -165.454855816573     Delta-E=       -0.023112470735 Rises=F Damp=F
 DIIS: error= 6.27D-03 at cycle   3 NSaved=   3.
 NSaved= 3 IEnMin= 3 EnMin= -165.454855816573     IErMin= 3 ErrMin= 6.27D-03
 ErrMax= 6.27D-03  0.00D+00 EMaxC= 1.00D-01 BMatC= 8.79D-04 BMatP= 7.32D-03
 IDIUse=3 WtCom= 9.37D-01 WtEn= 6.27D-02
 Coeff-Com: -0.155D+00 0.211D+00 0.944D+00
 Coeff-En:   0.000D+00 0.000D+00 0.100D+01
 Coeff:     -0.146D+00 0.198D+00 0.948D+00
 Gap=     0.480 Goal=   None    Shift=    0.000
 RMSDP=2.97D-03 MaxDP=1.71D-02 DE=-2.31D-02 OVMax= 0.00D+00

 Cycle   4  Pass 1  IDiag  1:
 E= -165.456245901958     Delta-E=       -0.001390085385 Rises=F Damp=F
 DIIS: error= 1.97D-03 at cycle   4 NSaved=   4.
 NSaved= 4 IEnMin= 4 EnMin= -165.456245901958     IErMin= 4 ErrMin= 1.97D-03
 ErrMax= 1.97D-03  0.00D+00 EMaxC= 1.00D-01 BMatC= 1.42D-04 BMatP= 8.79D-04
 IDIUse=3 WtCom= 9.80D-01 WtEn= 1.97D-02
 Coeff-Com: -0.374D-01 0.877D-02 0.230D+00 0.799D+00
 Coeff-En:   0.000D+00 0.000D+00 0.000D+00 0.100D+01
 Coeff:     -0.367D-01 0.860D-02 0.225D+00 0.803D+00
 Gap=     0.483 Goal=   None    Shift=    0.000
 RMSDP=1.33D-03 MaxDP=9.02D-03 DE=-1.39D-03 OVMax= 0.00D+00

 Cycle   5  Pass 1  IDiag  1:
 E= -165.456492278451     Delta-E=       -0.000246376492 Rises=F Damp=F
 DIIS: error= 1.74D-03 at cycle   5 NSaved=   5.
 NSaved= 5 IEnMin= 5 EnMin= -165.456492278451     IErMin= 5 ErrMin= 1.74D-03
 ErrMax= 1.74D-03  0.00D+00 EMaxC= 1.00D-01 BMatC= 3.69D-05 BMatP= 1.42D-04
 IDIUse=3 WtCom= 9.83D-01 WtEn= 1.74D-02
 Coeff-Com:  0.399D-01-0.554D-01-0.322D+00 0.169D+00 0.117D+01
 Coeff-En:   0.000D+00 0.000D+00 0.000D+00 0.000D+00 0.100D+01
 Coeff:      0.392D-01-0.544D-01-0.317D+00 0.166D+00 0.117D+01
 Gap=     0.485 Goal=   None    Shift=    0.000
 RMSDP=9.53D-04 MaxDP=5.56D-03 DE=-2.46D-04 OVMax= 0.00D+00

 Cycle   6  Pass 1  IDiag  1:
 E= -165.456592376406     Delta-E=       -0.000100097955 Rises=F Damp=F
 DIIS: error= 3.13D-04 at cycle   6 NSaved=   6.
 NSaved= 6 IEnMin= 6 EnMin= -165.456592376406     IErMin= 6 ErrMin= 3.13D-04
 ErrMax= 3.13D-04  0.00D+00 EMaxC= 1.00D-01 BMatC= 1.19D-06 BMatP= 3.69D-05
 IDIUse=3 WtCom= 9.97D-01 WtEn= 3.13D-03
 Coeff-Com: -0.192D-01 0.281D-01 0.167D+00-0.109D+00-0.661D+00 0.159D+01
 Coeff-En:   0.000D+00 0.000D+00 0.000D+00 0.000D+00 0.000D+00 0.100D+01
 Coeff:     -0.192D-01 0.281D-01 0.166D+00-0.108D+00-0.659D+00 0.159D+01
 Gap=     0.485 Goal=   None    Shift=    0.000
 RMSDP=2.41D-04 MaxDP=1.67D-03 DE=-1.00D-04 OVMax= 0.00D+00

 Cycle   7  Pass 1  IDiag  1:
 E= -165.456599505992     Delta-E=       -0.000007129586 Rises=F Damp=F
 DIIS: error= 1.57D-04 at cycle   7 NSaved=   7.
 NSaved= 7 IEnMin= 7 EnMin= -165.456599505992     IErMin= 7 ErrMin= 1.57D-04
 ErrMax= 1.57D-04  0.00D+00 EMaxC= 1.00D-01 BMatC= 2.68D-07 BMatP= 1.19D-06
 IDIUse=3 WtCom= 9.98D-01 WtEn= 1.57D-03
 Coeff-Com:  0.125D-01-0.186D-01-0.109D+00 0.101D+00 0.395D+00-0.140D+01
 Coeff-Com:  0.202D+01
 Coeff-En:   0.000D+00 0.000D+00 0.000D+00 0.000D+00 0.000D+00 0.000D+00
 Coeff-En:   0.100D+01
 Coeff:      0.125D-01-0.186D-01-0.109D+00 0.101D+00 0.394D+00-0.140D+01
 Coeff:      0.202D+01
 Gap=     0.485 Goal=   None    Shift=    0.000
 RMSDP=1.73D-04 MaxDP=1.07D-03 DE=-7.13D-06 OVMax= 0.00D+00

 Cycle   8  Pass 1  IDiag  1:
 E= -165.456601556931     Delta-E=       -0.000002050939 Rises=F Damp=F
 DIIS: error= 5.54D-05 at cycle   8 NSaved=   8.
 NSaved= 8 IEnMin= 8 EnMin= -165.456601556931     IErMin= 8 ErrMin= 5.54D-05
 ErrMax= 5.54D-05  0.00D+00 EMaxC= 1.00D-01 BMatC= 3.94D-08 BMatP= 2.68D-07
 IDIUse=1 WtCom= 1.00D+00 WtEn= 0.00D+00
 Coeff-Com: -0.501D-02 0.729D-02 0.515D-01-0.499D-01-0.177D+00 0.723D+00
 Coeff-Com: -0.139D+01 0.184D+01
 Coeff:     -0.501D-02 0.729D-02 0.515D-01-0.499D-01-0.177D+00 0.723D+00
 Coeff:     -0.139D+01 0.184D+01
 Gap=     0.485 Goal=   None    Shift=    0.000
 RMSDP=8.37D-05 MaxDP=4.37D-04 DE=-2.05D-06 OVMax= 0.00D+00

 Cycle   9  Pass 1  IDiag  1:
 E= -165.456601956792     Delta-E=       -0.000000399861 Rises=F Damp=F
 DIIS: error= 2.84D-05 at cycle   9 NSaved=   9.
 NSaved= 9 IEnMin= 9 EnMin= -165.456601956792     IErMin= 9 ErrMin= 2.84D-05
 ErrMax= 2.84D-05  0.00D+00 EMaxC= 1.00D-01 BMatC= 7.56D-09 BMatP= 3.94D-08
 IDIUse=1 WtCom= 1.00D+00 WtEn= 0.00D+00
 Coeff-Com:  0.253D-02-0.348D-02-0.313D-01 0.300D-01 0.104D+00-0.452D+00
 Coeff-Com:  0.953D+00-0.179D+01 0.219D+01
 Coeff:      0.253D-02-0.348D-02-0.313D-01 0.300D-01 0.104D+00-0.452D+00
 Coeff:      0.953D+00-0.179D+01 0.219D+01
 Gap=     0.485 Goal=   None    Shift=    0.000
 RMSDP=5.16D-05 MaxDP=2.94D-04 DE=-4.00D-07 OVMax= 0.00D+00

 Cycle  10  Pass 1  IDiag  1:
 E= -165.456602051459     Delta-E=       -0.000000094666 Rises=F Damp=F
 DIIS: error= 5.23D-06 at cycle  10 NSaved=  10.
 NSaved=10 IEnMin=10 EnMin= -165.456602051459     IErMin=10 ErrMin= 5.23D-06
 ErrMax= 5.23D-06  0.00D+00 EMaxC= 1.00D-01 BMatC= 5.92D-10 BMatP= 7.56D-09
 IDIUse=1 WtCom= 1.00D+00 WtEn= 0.00D+00
 Coeff-Com: -0.810D-03 0.105D-02 0.123D-01-0.120D-01-0.394D-01 0.187D+00
 Coeff-Com: -0.433D+00 0.943D+00-0.145D+01 0.179D+01
 Coeff:     -0.810D-03 0.105D-02 0.123D-01-0.120D-01-0.394D-01 0.187D+00
 Coeff:     -0.433D+00 0.943D+00-0.145D+01 0.179D+01
 Gap=     0.485 Goal=   None    Shift=    0.000
 RMSDP=1.27D-05 MaxDP=6.31D-05 DE=-9.47D-08 OVMax= 0.00D+00

 Cycle  11  Pass 1  IDiag  1:
 E= -165.456602056471     Delta-E=       -0.000000005012 Rises=F Damp=F
 DIIS: error= 1.31D-06 at cycle  11 NSaved=  11.
 NSaved=11 IEnMin=11 EnMin= -165.456602056471     IErMin=11 ErrMin= 1.31D-06
 ErrMax= 1.31D-06  0.00D+00 EMaxC= 1.00D-01 BMatC= 3.53D-11 BMatP= 5.92D-10
 IDIUse=1 WtCom= 1.00D+00 WtEn= 0.00D+00
 Coeff-Com:  0.210D-03-0.251D-03-0.387D-02 0.370D-02 0.122D-01-0.596D-01
 Coeff-Com:  0.143D+00-0.324D+00 0.551D+00-0.881D+00 0.156D+01
 Coeff:      0.210D-03-0.251D-03-0.387D-02 0.370D-02 0.122D-01-0.596D-01
 Coeff:      0.143D+00-0.324D+00 0.551D+00-0.881D+00 0.156D+01
 Gap=     0.485 Goal=   None    Shift=    0.000
 RMSDP=1.46D-06 MaxDP=7.68D-06 DE=-5.01D-09 OVMax= 0.00D+00

 Cycle  12  Pass 1  IDiag  1:
 E= -165.456602056639     Delta-E=       -0.000000000168 Rises=F Damp=F
 DIIS: error= 3.20D-07 at cycle  12 NSaved=  12.
 NSaved=12 IEnMin=12 EnMin= -165.456602056639     IErMin=12 ErrMin= 3.20D-07
 ErrMax= 3.20D-07  0.00D+00 EMaxC= 1.00D-01 BMatC= 2.52D-12 BMatP= 3.53D-11
 IDIUse=1 WtCom= 1.00D+00 WtEn= 0.00D+00
 Coeff-Com: -0.181D-04 0.185D-05 0.950D-03-0.884D-03-0.281D-02 0.157D-01
 Coeff-Com: -0.418D-01 0.103D+00-0.195D+00 0.363D+00-0.896D+00 0.165D+01
 Coeff:     -0.181D-04 0.185D-05 0.950D-03-0.884D-03-0.281D-02 0.157D-01
 Coeff:     -0.418D-01 0.103D+00-0.195D+00 0.363D+00-0.896D+00 0.165D+01
 Gap=     0.485 Goal=   None    Shift=    0.000
 RMSDP=3.95D-07 MaxDP=1.69D-06 DE=-1.68D-10 OVMax= 0.00D+00

 Cycle  13  Pass 1  IDiag  1:
 E= -165.456602056649     Delta-E=       -0.000000000011 Rises=F Damp=F
 DIIS: error= 4.48D-08 at cycle  13 NSaved=  13.
 NSaved=13 IEnMin=13 EnMin= -165.456602056649     IErMin=13 ErrMin= 4.48D-08
 ErrMax= 4.48D-08  0.00D+00 EMaxC= 1.00D-01 BMatC= 4.83D-14 BMatP= 2.52D-12
 IDIUse=1 WtCom= 1.00D+00 WtEn= 0.00D+00
 Coeff-Com:  0.451D-05-0.203D-05-0.189D-03 0.165D-03 0.588D-03-0.312D-02
 Coeff-Com:  0.820D-02-0.199D-01 0.375D-01-0.693D-01 0.178D+00-0.371D+00
 Coeff-Com:  0.124D+01
 Coeff:      0.451D-05-0.203D-05-0.189D-03 0.165D-03 0.588D-03-0.312D-02
 Coeff:      0.820D-02-0.199D-01 0.375D-01-0.693D-01 0.178D+00-0.371D+00
 Coeff:      0.124D+01
 Gap=     0.485 Goal=   None    Shift=    0.000
 RMSDP=2.71D-08 MaxDP=1.30D-07 DE=-1.08D-11 OVMax= 0.00D+00

 Cycle  14  Pass 1  IDiag  1:
 E= -165.456602056649     Delta-E=        0.000000000001 Rises=F Damp=F
 DIIS: error= 6.69D-09 at cycle  14 NSaved=  14.
 NSaved=14 IEnMin=13 EnMin= -165.456602056649     IErMin=14 ErrMin= 6.69D-09
 ErrMax= 6.69D-09  0.00D+00 EMaxC= 1.00D-01 BMatC= 9.62D-16 BMatP= 4.83D-14
 IDIUse=1 WtCom= 1.00D+00 WtEn= 0.00D+00
 Coeff-Com:  0.548D-06-0.103D-05 0.232D-05 0.163D-05-0.108D-04 0.647D-04
 Coeff-Com: -0.251D-03 0.719D-03-0.162D-02 0.353D-02-0.126D-01 0.342D-01
 Coeff-Com: -0.297D+00 0.127D+01
 Coeff:      0.548D-06-0.103D-05 0.232D-05 0.163D-05-0.108D-04 0.647D-04
 Coeff:     -0.251D-03 0.719D-03-0.162D-02 0.353D-02-0.126D-01 0.342D-01
 Coeff:     -0.297D+00 0.127D+01
 Gap=     0.485 Goal=   None    Shift=    0.000
 RMSDP=6.18D-09 MaxDP=3.34D-08 DE= 6.54D-13 OVMax= 0.00D+00

 SCF Done:  E(RHF) =  -165.456602057     A.U. after   14 cycles
            NFock= 14  Conv=0.62D-08     -V/T= 2.0097
 KE= 1.638595061777D+02 PE=-5.014070314544D+02 EE= 1.163348712974D+02
 Leave Link  502 at Fri Apr 15 18:54:11 2022, MaxMem=   131072000 cpu:               0.0 elap:               0.1
 (Enter C:\G16W\l801.exe)
 Range of M.O.s used for correlation:     1    16
 NBasis=    16 NAE=    11 NBE=    11 NFC=     0 NFV=     0
 NROrb=     16 NOA=    11 NOB=    11 NVA=     5 NVB=     5
 Leave Link  801 at Fri Apr 15 18:54:11 2022, MaxMem=   131072000 cpu:               0.0 elap:               0.0
 (Enter C:\G16W\l1101.exe)
 Using compressed storage, NAtomX=     4.
 Will process      5 centers per pass.
 Leave Link 1101 at Fri Apr 15 18:54:11 2022, MaxMem=   131072000 cpu:               0.0 elap:               0.0
 (Enter C:\G16W\l1102.exe)
 Symmetrizing basis deriv contribution to polar:
 IMax=3 JMax=2 DiffMx= 0.00D+00
 Leave Link 1102 at Fri Apr 15 18:54:12 2022, MaxMem=   131072000 cpu:               0.0 elap:               0.0
 (Enter C:\G16W\l1110.exe)
 Forming Gx(P) for the SCF density, NAtomX=     4.
 Integral derivatives from FoFJK, PRISM(SPDF).
 Do as many integral derivatives as possible in FoFJK.
 G2DrvN: MDV=     131071592.
 G2DrvN: will do     5 centers at a time, making    1 passes.
 Calling FoFCou, ICntrl=  3107 FMM=F I1Cent=   0 AccDes= 0.00D+00.
 FoFJK:  IHMeth= 1 ICntrl=    3107 DoSepK=F KAlg= 0 I1Cent=           0 FoldK=F
 IRaf=         0 NMat=       1 IRICut=       1 DoRegI=T DoRafI=F ISym2E= 0 IDoP0=0 IntGTp=1.
 FoFCou: FMM=F IPFlag=           0 FMFlag=      100000 FMFlg1=           0
         NFxFlg=           0 DoJE=F BraDBF=F KetDBF=F FulRan=T
         wScrn=  0.000000 ICntrl=      3107 IOpCl=  0 I1Cent=           0 NGrid=           0
         NMat0=    1 NMatS0=      1 NMatT0=    0 NMatD0=    1 NMtDS0=    0 NMtDT0=    0
 Symmetry not used in FoFCou.
 End of G2Drv F.D. properties file   721 does not exist.
 End of G2Drv F.D. properties file   722 does not exist.
 End of G2Drv F.D. properties file   788 does not exist.
 Leave Link 1110 at Fri Apr 15 18:54:12 2022, MaxMem=   131072000 cpu:               0.0 elap:               0.1
 (Enter C:\G16W\l1002.exe)
 Minotr:  Closed shell wavefunction.
          IDoAtm=1111
          Direct CPHF calculation.
          Differentiating once with respect to electric field.
                with respect to dipole field.
          Differentiating once with respect to nuclear coordinates.
          Requested convergence is 1.0D-08 RMS, and 1.0D-07 maximum.
          Secondary convergence is 1.0D-12 RMS, and 1.0D-12 maximum.
          NewPWx=T KeepS1=F KeepF1=F KeepIn=T MapXYZ=F SortEE=F KeepMc=T.
 Keep R1 ints in memory in canonical form, NReq=814683.
 FoFCou: FMM=F IPFlag=           0 FMFlag=           0 FMFlg1=           0
         NFxFlg=           0 DoJE=F BraDBF=F KetDBF=F FulRan=T
         wScrn=  0.000000 ICntrl=       600 IOpCl=  0 I1Cent=           0 NGrid=           0
         NMat0=    1 NMatS0=    136 NMatT0=    0 NMatD0=    1 NMtDS0=    0 NMtDT0=    0
 Symmetry not used in FoFCou.
 Two-electron integral symmetry not used.
          MDV=     131072000 using IRadAn=       1.
          Solving linear equations simultaneously, MaxMat=       0.
          There are    15 degrees of freedom in the 1st order CPHF.  IDoFFX=6 NUNeed=     3.
     12 vectors produced by pass  0 Test12= 3.67D-16 6.67D-09 XBig12= 1.34D+01 2.56D+00.
 AX will form    12 AO Fock derivatives at one time.
     12 vectors produced by pass  1 Test12= 3.67D-16 6.67D-09 XBig12= 9.11D-01 4.93D-01.
     12 vectors produced by pass  2 Test12= 3.67D-16 6.67D-09 XBig12= 8.28D-03 4.85D-02.
     12 vectors produced by pass  3 Test12= 3.67D-16 6.67D-09 XBig12= 9.24D-06 1.08D-03.
      7 vectors produced by pass  4 Test12= 3.67D-16 6.67D-09 XBig12= 5.78D-09 4.51D-05.
 InvSVY:  IOpt=1 It=  1 EMax= 1.11D-15
 Solved reduced A of dimension    55 with    12 vectors.
 FullF1:  Do perturbations      1 to       3.
 Isotropic polarizability for W=    0.000000       11.44 Bohr**3.
 End of Minotr F.D. properties file   721 does not exist.
 End of Minotr F.D. properties file   722 does not exist.
 End of Minotr F.D. properties file   788 does not exist.
 Leave Link 1002 at Fri Apr 15 18:54:12 2022, MaxMem=   131072000 cpu:               0.0 elap:               0.0
 (Enter C:\G16W\l601.exe)
 Copying SCF densities to generalized density rwf, IOpCl= 0 IROHF=0.

 **********************************************************************

            Population analysis using the SCF density.

 **********************************************************************

 Orbital symmetries:
       Occupied  (A) (A) (A) (A) (A) (A) (A) (A) (A) (A) (A)
       Virtual   (A) (A) (A) (A) (A)
 The electronic state is 1-A.
 Alpha  occ. eigenvalues --  -20.37294 -15.33394 -11.19582  -1.37719  -1.11458
 Alpha  occ. eigenvalues --   -0.69605  -0.58299  -0.54939  -0.51663  -0.37833
 Alpha  occ. eigenvalues --   -0.32104
 Alpha virt. eigenvalues --    0.16431   0.27896   0.58778   0.75494   0.95147
          Condensed to atoms (all electrons):
               1          2          3          4
     1  H    0.574157   0.303013  -0.035125   0.001036
     2  N    0.303013   6.633334   0.395539  -0.019337
     3  C   -0.035125   0.395539   4.872517   0.447664
     4  O    0.001036  -0.019337   0.447664   7.734413
 Mulliken charges:
               1
     1  H    0.156920
     2  N   -0.312549
     3  C    0.319405
     4  O   -0.163776
 Sum of Mulliken charges =   0.00000
 Mulliken charges with hydrogens summed into heavy atoms:
               1
     2  N   -0.155629
     3  C    0.319405
     4  O   -0.163776
 APT charges:
               1
     1  H    0.197073
     2  N   -0.450108
     3  C    0.581146
     4  O   -0.328111
 Sum of APT charges =   0.00000
 APT charges with hydrogens summed into heavy atoms:
               1
     2  N   -0.253035
     3  C    0.581146
     4  O   -0.328111
 Electronic spatial extent (au):  <R**2>=            128.4292
 Charge=              0.0000 electrons
 Dipole moment (field-independent basis, Debye):
    X=             -0.5147    Y=              2.0453    Z=              0.0000  Tot=              2.1091
 Quadrupole moment (field-independent basis, Debye-Ang):
   XX=            -16.1763   YY=            -14.4211   ZZ=            -14.9536
   XY=             -1.7304   XZ=             -0.0001   YZ=              0.0000
 Traceless Quadrupole moment (field-independent basis, Debye-Ang):
   XX=             -0.9926   YY=              0.7626   ZZ=              0.2300
   XY=             -1.7304   XZ=             -0.0001   YZ=              0.0000
 Octapole moment (field-independent basis, Debye-Ang**2):
  XXX=             -1.5433  YYY=             -0.0007  ZZZ=              0.0000  XYY=              1.7180
  XXY=              3.0627  XXZ=              0.0002  XZZ=              1.9765  YZZ=             -0.0035
  YYZ=              0.0000  XYZ=              0.0000
 Hexadecapole moment (field-independent basis, Debye-Ang**3):
 XXXX=           -100.3856 YYYY=            -15.3385 ZZZZ=             -9.5744 XXXY=             -5.4268
 XXXZ=             -0.0004 YYYX=             -1.5314 YYYZ=              0.0000 ZZZX=              0.0000
 ZZZY=              0.0000 XXYY=            -19.0842 XXZZ=            -19.7442 YYZZ=             -4.1898
 XXYZ=              0.0001 YYXZ=              0.0000 ZZXY=             -0.3442
 N-N= 5.575605192267D+01 E-N=-5.014070314960D+02  KE= 1.638595061777D+02
  Exact polarizability:  23.532  -0.865   7.426   0.000   0.000   3.376
 Approx polarizability:  33.567   0.441   9.146   0.000   0.000   2.044
 No NMR shielding tensors so no spin-rotation constants.
 Leave Link  601 at Fri Apr 15 18:54:12 2022, MaxMem=   131072000 cpu:               0.0 elap:               0.0
 (Enter C:\G16W\l701.exe)
 SCFChk:  SCF convergence  6.18D-09 required  1.00D-08
 ... and contract with generalized density number  0.
 Compute integral second derivatives.
 Entering OneElI...
 Calculate overlap and kinetic energy integrals
    NBasis =  16  MinDer = 2  MaxDer = 2
 Requested accuracy = 0.1000D-12
 PrmmSu-InSpLW:  IPartL=    0 NPrtUS=    1 NPrtUL=    1 DoSpLW=F IThBeg=    0 IThEnd=    0 NThAct=    1.
 PrsmSu:  NPrtUS=   1 ThrOK=F IAlg=1 NPAlg=1 LenDen=           0 ISkipM=0 DoSpLW=F IThBeg=    0 IThEnd=    0.
 Prism:   IPart=     0 DynPar=F LinDyn=F Incr=           1.
 PRISM was handed   131065534 working-precision words and    28 shell-pairs
 IPart=  0 NShTot=          28 NBatch=           8 AvBLen=         3.5
 PrSmSu:  NxtVal=              2.
 Entering OneElI...
 Calculate potential energy integrals
    NBasis =  16  MinDer = 2  MaxDer = 2
 Requested accuracy = 0.1000D-12
 PrmmSu-InSpLW:  IPartL=    0 NPrtUS=    1 NPrtUL=    1 DoSpLW=F IThBeg=    0 IThEnd=    0 NThAct=    1.
 PrsmSu:  NPrtUS=   1 ThrOK=F IAlg=1 NPAlg=1 LenDen=           0 ISkipM=0 DoSpLW=F IThBeg=    0 IThEnd=    0.
 Prism:   IPart=     0 DynPar=F LinDyn=F Incr=           1.
 PRISM was handed   131065828 working-precision words and    27 shell-pairs
 IPart=  0 NShTot=         108 NBatch=          27 AvBLen=         4.0
 PrSmSu:  NxtVal=              2.
 Polarizability after L701:
                1             2             3 
      1  0.235318D+02
      2 -0.864909D+00  0.742556D+01
      3 -0.281389D-03 -0.100429D-04  0.337582D+01
 Dipole Derivatives after L701:
                 1             2             3             4             5 
      1   0.299653D+00  0.193306D+00 -0.305180D-05 -0.845787D+00 -0.521095D+00
      2   0.876358D-01 -0.564108D-02 -0.144646D-04  0.592507D-01  0.174142D-01
      3   0.629176D-05 -0.101493D-04  0.297207D+00 -0.184400D-04  0.495686D-05
                 6             7             8             9            10 
      1  -0.199705D-05  0.132493D+01  0.157811D+00  0.235936D-04 -0.778799D+00
      2   0.157608D-04 -0.341095D-01  0.425753D-01  0.350862D-05 -0.112777D+00
      3  -0.521950D+00  0.107976D-04  0.728543D-05  0.375930D+00  0.135066D-05
                11            12 
      1   0.169978D+00 -0.185448D-04
      2  -0.543484D-01 -0.480485D-05
      3  -0.209300D-05 -0.151187D+00
 Hessian after L701:
                1             2             3             4             5 
      1  0.186900D+01
      2  0.845916D+00  0.151988D+01
      3  0.470972D-04 -0.589798D-04  0.247371D+01
      4 -0.185807D+01 -0.717311D+00 -0.428942D-04  0.186638D+00
      5 -0.930932D+00 -0.154481D+01  0.617046D-04 -0.285289D+01  0.623783D+01
      6 -0.529369D-04  0.568206D-04 -0.247794D+01  0.103239D-03 -0.791962D-04
      7 -0.133941D+00 -0.355971D-01  0.107421D-05  0.807941D+00  0.349875D+01
      8  0.144859D+00  0.323954D-01 -0.419291D-05  0.362795D+01 -0.416498D+01
      9  0.778717D-05  0.210023D-05  0.343935D-01 -0.695158D-04  0.156582D-04
     10  0.123009D+00 -0.930082D-01 -0.527726D-05  0.863487D+00  0.285069D+00
     11 -0.598435D-01 -0.746947D-02  0.146817D-05 -0.577505D-01 -0.528034D+00
     12 -0.194754D-05  0.000000D+00 -0.301652D-01  0.917109D-05  0.183340D-05
                6             7             8             9            10 
      6  0.982315D+01
      7 -0.557935D-04 -0.209180D+01
      8  0.241605D-04  0.995917D+00  0.124655D+02
      9 -0.689841D+01 -0.974869D-04  0.966477D-04  0.161551D+02
     10  0.549150D-05  0.141780D+01 -0.476873D+01  0.159216D-03 -0.240429D+01
     11 -0.178490D-05 -0.445907D+01 -0.833293D+01 -0.114406D-03  0.457667D+01
     12 -0.446804D+00  0.152206D-03 -0.116615D-03 -0.929108D+01 -0.159430D-03
               11            12 
     11  0.886843D+01
     12  0.114723D-03  0.976805D+01
 Leave Link  701 at Fri Apr 15 18:54:12 2022, MaxMem=   131072000 cpu:               0.0 elap:               0.1
 (Enter C:\G16W\l702.exe)
 L702 exits ... SP integral derivatives will be done elsewhere.
 Leave Link  702 at Fri Apr 15 18:54:12 2022, MaxMem=   131072000 cpu:               0.0 elap:               0.0
 (Enter C:\G16W\l703.exe)
 Integral derivatives from FoFJK, PRISM(SPDF).
 Compute integral second derivatives, UseDBF=F ICtDFT=           0.
 ICntrl=    100127.
 Calling FoFJK, ICntrl=    100127 FMM=F ISym2X=0 I1Cent= 0 IOpClX= 0 NMat=1 NMatS=1 NMatT=0.
 FoFJK:  IHMeth= 1 ICntrl=  100127 DoSepK=F KAlg= 0 I1Cent=           0 FoldK=F
 IRaf=         0 NMat=       1 IRICut=       1 DoRegI=T DoRafI=F ISym2E= 0 IDoP0=0 IntGTp=1.
 FoFCou: FMM=F IPFlag=           0 FMFlag=      100000 FMFlg1=         800
         NFxFlg=           0 DoJE=F BraDBF=F KetDBF=F FulRan=T
         wScrn=  0.000000 ICntrl=    100127 IOpCl=  0 I1Cent=           0 NGrid=           0
         NMat0=    1 NMatS0=      1 NMatT0=    0 NMatD0=    1 NMtDS0=    0 NMtDT0=    0
 Symmetry not used in FoFCou.
 FoFCou:  KetSym=F NOpSet=  1 NOpAb=1 NOp=  1.
 FoFCou:  CnvScl= 1.00D+00 Thresh= 1.00D-12 IAcrcy=      10.
 PrismS was handed   131066193 working-precision words and    27 shell-pairs
 FoFCou: LinMIO=F DoNuc=F BraDBF=F KetDBF=F HaveP=T PDBF=F HaveZ=T HaveW=F
         NIJTC =       3 NIJTAt=       0 NIJTCD=       0 NIJTT =       3
         IJTBeg=       1 IJTEnd=       3 KLTBeg=       1 KLTEnd=       3
         IPTBeg=       1 IPTEnd=       3 IPTBCv=       1 IPTECv=       3
         IZTBeg=       1 IZTEnd=       3 IZTBCv=       1 IZTECv=       3
         IWTBeg=       4 IWTEnd=       3 IWTBCv=       4 IWTECv=       3
         INTBeg=       1 INTEnd=       0 IFTBCv=       1 IFTECv=       3
 NCel replicated for PrismC:     1
 CoulSu-InSpLW:  IPartL=    0 NPrtUS=    1 NPrtUL=    1 DoSpLW=F IThBeg=    0 IThEnd=    0 NThAct=    1.
 CoulSu:  IncDef=  1024 NBBP=            378 NTPThr=   100 NPartT=    1 Incr=           3 LDynOK=F GPUOK=T.
 CoulSu:  NPrtUS=   1 ThrOK=F IAlg=1 NPAlg=1 LenDen=           0 LWGrdD=           0 DoCopy=F ISkipM=0
          DoSpLW=F IThBeg=    0 IThEnd=    0.
 Enter PrismC:  IPart=  0 JobTyp=22 DoJE=F Cont=F.
 PrismC:  IPart=     0 DynPar=F LinDyn=F Incr=           3 UseFst=F UseS4=T ISplat=2.
 PrismC was handed   131066104 working-precision words and    27 shell-pairs
 IPart=  0 NShTot=         376 NShNF=         376 NShFF=           0 MinMC=      10
           NShCPU=         376 NBCPU=          31 AvBCPU=        12.1
           NShGPU=           0 NBGPU=           0 AvBGPU=         0.0
 CoulSu:  NxtVal=              4 LenVP=      131066105 MinMC=      10.
 Polarizability after L703:
                1             2             3 
      1  0.235318D+02
      2 -0.864909D+00  0.742556D+01
      3 -0.281389D-03 -0.100429D-04  0.337582D+01
 Dipole Derivatives after L703:
                 1             2             3             4             5 
      1   0.299653D+00  0.193306D+00 -0.305180D-05 -0.845787D+00 -0.521095D+00
      2   0.876358D-01 -0.564108D-02 -0.144646D-04  0.592507D-01  0.174142D-01
      3   0.629176D-05 -0.101493D-04  0.297207D+00 -0.184400D-04  0.495686D-05
                 6             7             8             9            10 
      1  -0.199705D-05  0.132493D+01  0.157811D+00  0.235936D-04 -0.778799D+00
      2   0.157608D-04 -0.341095D-01  0.425753D-01  0.350862D-05 -0.112777D+00
      3  -0.521950D+00  0.107976D-04  0.728543D-05  0.375930D+00  0.135066D-05
                11            12 
      1   0.169978D+00 -0.185448D-04
      2  -0.543484D-01 -0.480485D-05
      3  -0.209300D-05 -0.151187D+00
 Hessian after L703:
                1             2             3             4             5 
      1  0.297200D+00
      2 -0.233886D+00  0.289759D+00
      3 -0.151728D-04  0.148482D-04  0.603031D-02
      4 -0.252180D+00  0.281907D+00  0.171363D-04  0.611989D+00
      5  0.198580D+00 -0.291688D+00 -0.132583D-04 -0.215167D+00  0.373522D+00
      6  0.133032D-04 -0.158923D-04 -0.707047D-02 -0.170494D-04  0.154172D-04
      7 -0.438487D-01 -0.401587D-01 -0.151067D-05 -0.180834D+00  0.314518D-01
      8  0.422064D-01  0.175599D-02 -0.144275D-05 -0.694379D-01 -0.109386D+00
      9  0.186904D-05  0.173432D-05 -0.335772D-02  0.000000D+00 -0.356295D-05
     10 -0.117100D-02 -0.786215D-02  0.000000D+00 -0.178974D+00 -0.148649D-01
     11 -0.690013D-02  0.172409D-03  0.000000D+00  0.269774D-02  0.275510D-01
     12  0.000000D+00  0.000000D+00  0.439788D-02  0.000000D+00  0.140410D-05
                6             7             8             9            10 
      6  0.557313D-01
      7  0.342313D-05  0.797163D+00
      8  0.000000D+00 -0.193515D+00  0.271152D+00
      9 -0.684568D-01  0.665641D-05  0.000000D+00  0.156913D+00
     10  0.000000D+00 -0.572480D+00  0.220747D+00 -0.789796D-05  0.752625D+00
     11  0.000000D+00  0.202222D+00 -0.163523D+00  0.278739D-05 -0.198020D+00
     12  0.197960D-01 -0.856887D-05  0.230403D-05 -0.850986D-01  0.802768D-05
               11            12 
     11  0.135799D+00
     12 -0.301794D-05  0.609047D-01
 Leave Link  703 at Fri Apr 15 18:54:12 2022, MaxMem=   131072000 cpu:               0.0 elap:               0.1
 (Enter C:\G16W\l716.exe)
 FrcOut:
 IF    =        41 IFX   =        53 IFXYZ =        65
 IFFX  =        77 IFFFX =       155 IFLen =        12
 IFFLen=        78 IFFFLn=         0 IEDerv=       155
 LEDerv=       629 IFroze=       954 ICStrt=      1551
 Dipole        =-2.02501453D-01 8.04689057D-01 1.65362778D-05
 DipoleDeriv   = 2.99653157D-01 8.76358233D-02 6.29176282D-06
                 1.93306272D-01-5.64107586D-03-1.01492835D-05
                -3.05179719D-06-1.44645506D-05 2.97206555D-01
                -8.45786872D-01 5.92507101D-02-1.84399758D-05
                -5.21094789D-01 1.74142214D-02 4.95685564D-06
                -1.99704853D-06 1.57607783D-05-5.21950010D-01
                 1.32493246D+00-3.41094852D-02 1.07975570D-05
                 1.57810899D-01 4.25752981D-02 7.28543092D-06
                 2.35936222D-05 3.50862468D-06 3.75930039D-01
                -7.78798744D-01-1.12777048D-01 1.35065598D-06
                 1.69977618D-01-5.43484437D-02-2.09300302D-06
                -1.85447765D-05-4.80485239D-06-1.51186584D-01
 Polarizability= 2.35317808D+01-8.64909260D-01 7.42555699D+00
                -2.81389361D-04-1.00429474D-05 3.37581860D+00
 HyperPolar    = 6.33875496D+00 2.70824388D+01 1.79528590D+00
                 6.95279055D+00-1.39269140D-03-1.30368517D-03
                -2.49421911D-04 1.50412557D+01 4.92381380D+00
                 3.37749847D-05
 Quadrupole    =-7.37974420D-01 5.66951337D-01 1.71023083D-01
                -1.28649512D+00-1.08878129D-04 1.64889167D-05
 VibFq2-Diag1:  N=     12 IV=           5 MDV=   131069605 NE2=    10922466
 Full mass-weighted force constant matrix:
 Low frequencies ---    0.0009    0.0009    0.0011  203.5203  244.9658  433.3673
 Low frequencies ---  674.0370  692.9653 1001.7143
 OrtVCM:  Ph=1 IPass= 1 DotMx1= 0.00D+00
 OrtVCM:  IS=    1 I=    1 IndO=    1 Dot= 1.00D+00 DotN= 1.00D+00 ElMax1= 6.10D-01 ElMax1N= 6.10D-01
 OrtVCM:  Ph=2 NNew=    0 IAdd=    2 IPass= 1 DotMx2= 0.00D+00
 OrtVCM:  IS=    1 I=    2 IndO=    2 Dot= 1.00D+00 DotN= 1.00D+00 ElMax1= 6.10D-01 ElMax1N= 6.10D-01
 OrtVCM:  Ph=2 NNew=    0 IAdd=    3 IPass= 1 DotMx2= 0.00D+00
 OrtVCM:  IS=    1 I=    3 IndO=    3 Dot= 1.00D+00 DotN= 1.00D+00 ElMax1= 6.10D-01 ElMax1N= 6.10D-01
 OrtVCM:  Ph=2 NNew=    0 IAdd=    4 IPass= 1 DotMx2= 1.11D-16
 OrtVCM:  IS=    1 I=    4 IndO=    4 Dot= 1.00D+00 DotN= 1.00D+00 ElMax1= 7.46D-01 ElMax1N= 7.46D-01
 OrtVCM:  Ph=2 NNew=    0 IAdd=    5 IPass= 1 DotMx2= 8.33D-17
 OrtVCM:  IS=    1 I=    5 IndO=    5 Dot= 1.00D+00 DotN= 1.00D+00 ElMax1= 6.86D-01 ElMax1N= 6.86D-01
 OrtVCM:  Ph=2 NNew=    0 IAdd=    6 IPass= 1 DotMx2= 1.11D-16
 OrtVCM:  IS=    1 I=    6 IndO=    6 Dot= 1.00D+00 DotN= 1.00D+00 ElMax1= 6.69D-01 ElMax1N= 6.69D-01
 OrtVCM:  Ph=1 IPass= 1 DotMx1= 6.71D-01
 OrtVCM:  Ph=1 IPass= 2 DotMx1= 1.67D-16
 OrtVCM:  IS=    1 I=    1 IndO=    7 Dot= 9.70D-01 DotN= 9.70D-01 ElMax1= 9.70D-01 ElMax1N= 9.70D-01
 OrtVCM:  Ph=2 NNew=    0 IAdd=    2 IPass= 1 DotMx2= 2.21D-02
 OrtVCM:  Ph=2 NNew=    0 IAdd=    2 IPass= 2 DotMx2= 4.83D-18
 OrtVCM:  IS=    1 I=    2 IndO=    8 Dot= 9.00D-01 DotN= 9.00D-01 ElMax1= 9.00D-01 ElMax1N= 9.00D-01
 OrtVCM:  Ph=2 NNew=    0 IAdd=    3 IPass= 1 DotMx2= 1.09D-05
 OrtVCM:  Ph=2 NNew=    0 IAdd=    3 IPass= 2 DotMx2= 8.47D-22
 OrtVCM:  IS=    1 I=    3 IndO=    9 Dot= 7.59D-01 DotN= 7.59D-01 ElMax1= 7.59D-01 ElMax1N= 7.59D-01
 OrtVCM:  Ph=2 NNew=    0 IAdd=    4 IPass= 1 DotMx2= 7.91D-02
 OrtVCM:  Ph=2 NNew=    0 IAdd=    4 IPass= 2 DotMx2= 1.06D-17
 OrtVCM:  IS=    1 I=    4 IndO=   10 Dot= 6.53D-01 DotN= 6.53D-01 ElMax1= 6.53D-01 ElMax1N= 6.53D-01
 OrtVCM:  Ph=2 NNew=    0 IAdd=    5 IPass= 1 DotMx2= 2.83D-01
 OrtVCM:  Ph=2 NNew=    0 IAdd=    5 IPass= 2 DotMx2= 3.06D-17
 OrtVCM:  IS=    1 I=    5 IndO=   11 Dot= 1.58D-01 DotN= 1.58D-01 ElMax1= 3.18D-01 ElMax1N= 3.18D-01
 OrtVCM:  Ph=2 NNew=    0 IAdd=    6 IPass= 1 DotMx2= 1.22D-01
 OrtVCM:  Ph=2 NNew=    0 IAdd=    6 IPass= 2 DotMx2= 5.75D-18
 OrtVCM:  IS=    1 I=    6 IndO=    0 Dot= 3.29D-34 DotN= 3.29D-34 ElMax1= 1.38D-17 ElMax1N= 1.38D-17
 SchOr2:  IPass= 1 Test2A= 1.00D-01 IOff=     0 NDo=     6 NNew=     5
 OrtVCM:  Ph=1 IPass= 1 DotMx1= 5.28D-01
 OrtVCM:  Ph=1 IPass= 2 DotMx1= 2.66D-16
 OrtVCM:  IS=    1 I=    1 IndO=   12 Dot= 4.98D-01 DotN= 4.98D-01 ElMax1= 4.98D-01 ElMax1N= 4.98D-01
 SchOr2:  IPass= 1 Test2A= 1.00D-01 IOff=     6 NDo=     1 NNew=     1
 VibFq2-Diag2:  N=      6 IV=           5 MDV=   131069605 NE2=    21844933
 Dipole derivative wrt mode   1:  3.69729D-04 -3.60889D-04  6.91690D+00
 Vibrational polarizability contributions from mode   1       0.0000000       0.0000000       5.3101043
 Dipole derivative wrt mode   2: -8.11031D-01  5.05370D-01 -8.67763D-06
 Vibrational polarizability contributions from mode   2       0.0390114       0.0151473       0.0000000
 Dipole derivative wrt mode   3: -1.14567D+01  5.23197D-01  4.57773D-05
 Vibrational polarizability contributions from mode   3       3.5282942       0.0073582       0.0000000
 Dipole derivative wrt mode   4:  1.27699D+01  2.05980D+00 -3.30167D-05
 Vibrational polarizability contributions from mode   4       2.5578850       0.0665510       0.0000000
 Dipole derivative wrt mode   5:  8.25667D+00 -5.34512D-01  7.20357D-05
 Vibrational polarizability contributions from mode   5       0.6042777       0.0025325       0.0000000
 Dipole derivative wrt mode   6: -2.88326D+00 -1.90697D+00  2.27679D-05
 Vibrational polarizability contributions from mode   6       0.0151177       0.0066131       0.0000000
 Diagonal vibrational polarizability:
        6.7445861       0.0982021       5.3101043
 NorSel:  MapVib=      1      2      3      4      5      6
 Harmonic frequencies (cm**-1), IR intensities (KM/Mole), Raman scattering
 activities (A**4/AMU), depolarization ratios for plane and unpolarized
 incident light, reduced masses (AMU), force constants (mDyne/A),
 and normal coordinates:
                      1                      2                      3
                      A                      A                      A
 Frequencies --    492.4097               673.6088              1000.5641
 Red. masses --      1.2956                 6.3295                 9.7463
 Frc consts  --      0.1851                 1.6921                 5.7488
 IR Inten    --     47.8435                 0.9132               131.5304
  Atom  AN      X      Y      Z        X      Y      Z        X      Y      Z
     1   1     0.00   0.00   0.99    -0.34  -0.67   0.00    -0.14  -0.53   0.00
     2   7     0.00   0.00  -0.04     0.22  -0.14   0.00     0.58   0.27   0.00
     3   6     0.00   0.00  -0.13     0.05   0.52   0.00    -0.37  -0.32   0.00
     4   8     0.00   0.00   0.07    -0.21  -0.22   0.00    -0.22   0.03   0.00
                      4                      5                      6
                      A                      A                      A
 Frequencies --   1309.8256              1742.4210              3846.8739
 Red. masses --      1.3486                 6.3849                 1.0746
 Frc consts  --      1.3632                11.4211                 9.3694
 IR Inten    --    167.3131                68.4583                11.9497
  Atom  AN      X      Y      Z        X      Y      Z        X      Y      Z
     1   1     0.76   0.63   0.00    -0.56  -0.49   0.00    -0.70   0.71   0.00
     2   7     0.06  -0.08   0.00    -0.03   0.06   0.00     0.05  -0.05   0.00
     3   6     0.03   0.01   0.00     0.52  -0.20   0.00     0.00   0.00   0.00
     4   8    -0.12   0.02   0.00    -0.33   0.13   0.00     0.00   0.00   0.00

 -------------------
 - Thermochemistry -
 -------------------
 Temperature   298.150 Kelvin.  Pressure   1.00000 Atm.
 Atom     1 has atomic number  1 and mass   1.00783
 Atom     2 has atomic number  7 and mass  14.00307
 Atom     3 has atomic number  6 and mass  12.00000
 Atom     4 has atomic number  8 and mass  15.99491
 Molecular mass:    43.00581 amu.
 Principal axes and moments of inertia in atomic units:
                           1         2         3
     Eigenvalues --     9.21933 165.99033 175.20966
           X            0.99973  -0.02344   0.00000
           Y            0.02344   0.99973   0.00001
           Z            0.00000  -0.00001   1.00000
 This molecule is an asymmetric top.
 Rotational symmetry number  1.
 Rotational temperatures (Kelvin)      9.39482     0.52180     0.49434
 Rotational constants (GHZ):         195.75620    10.87257    10.30047
 Zero-point vibrational energy      54224.9 (Joules/Mol)
                                   12.96007 (Kcal/Mol)
 Warning -- explicit consideration of   1 degrees of freedom as
           vibrations may cause significant error
 Vibrational temperatures:    708.47   969.17  1439.59  1884.55  2506.96
          (Kelvin)           5534.79
 
 Zero-point correction=                           0.020653 (Hartree/Particle)
 Thermal correction to Energy=                    0.023889
 Thermal correction to Enthalpy=                  0.024833
 Thermal correction to Gibbs Free Energy=        -0.002993
 Sum of electronic and zero-point Energies=           -165.435949
 Sum of electronic and thermal Energies=              -165.432714
 Sum of electronic and thermal Enthalpies=            -165.431769
 Sum of electronic and thermal Free Energies=         -165.459595
 
                     E (Thermal)             CV                S
                      KCal/Mol        Cal/Mol-Kelvin    Cal/Mol-Kelvin
 Total                   14.990              8.660             58.565
 Electronic               0.000              0.000              0.000
 Translational            0.889              2.981             37.203
 Rotational               0.889              2.981             20.222
 Vibrational             13.213              2.699              1.140
 Vibration     1          0.848              1.267              0.677
                       Q            Log10(Q)             Ln(Q)
 Total Bot       0.238142D+02          1.376836          3.170283
 Total V=0       0.752725D+11         10.876636         25.044381
 Vib (Bot)       0.366502D-09         -9.435924        -21.727018
 Vib (Bot)    1  0.336014D+00         -0.473642         -1.090602
 Vib (V=0)       0.115845D+01          0.063876          0.147080
 Vib (V=0)    1  0.110242D+01          0.042346          0.097505
 Electronic      0.100000D+01          0.000000          0.000000
 Translational   0.110852D+08          7.044745         16.221124
 Rotational      0.586159D+04          3.768016          8.676177
 Write normal modes, IRwNMS=   765 IRotNM=-1 NVibU=     6.
 
                                                                  T1
                                                             IR Spectrum
 
     3                                                                     1             1         1                                 
     8                                                                     7             3         0          6     4                
     4                                                                     4             1         0          7     9                
     7                                                                     2             0         1          4     2                
 
     X                                                                     X             X         X          X     X                
                                                                           X             X         X                X                
                                                                           X             X         X                X                
                                                                           X             X         X                X                
                                                                           X             X         X                X                
                                                                           X             X         X                X                
                                                                           X             X         X                                 
                                                                           X             X         X                                 
                                                                                         X         X                                 
                                                                                         X         X                                 
                                                                                         X         X                                 
                                                                                         X         X                                 
                                                                                         X         X                                 
                                                                                         X         X                                 
                                                                                         X         X                                 
                                                                                         X         X                                 
                                                                                         X                                           
                                                                                         X                                           
                                                                                         X                                           
                                                                                         X                                           
 
 Forces in standard orientation:
 -------------------------------------------------------------------
 Center     Atomic                   Forces (Hartrees/Bohr)
 Number     Number              X              Y              Z
 -------------------------------------------------------------------
      1        1           0.003916505    0.006265711    0.000000630
      2        7          -0.061162556   -0.079509722    0.000000765
      3        6          -0.012896326    0.144003379   -0.000004054
      4        8           0.070142377   -0.070759368    0.000002660
 -------------------------------------------------------------------
 Cartesian Forces:  Max     0.144003379 RMS     0.058414740
 ***** Axes restored to original set *****
 Rotating derivatives, DoTrsp=F IDiff=-2 LEDeriv=    628 LFDPrp=       0 LDFDPr=       0.
 -------------------------------------------------------------------
 Center     Atomic                   Forces (Hartrees/Bohr)
 Number     Number              X              Y              Z
 -------------------------------------------------------------------
      1        1          -0.007120425   -0.000000495    0.001974258
      2        7           0.098808191   -0.000002207   -0.017308832
      3        6          -0.087768710    0.000009503    0.114891001
      4        8          -0.003919056   -0.000006801   -0.099556427
 -------------------------------------------------------------------
 Cartesian Forces:  Max     0.114891001 RMS     0.058414740
 From PutF, contents of force:
   1   -0.1974258118D-02
   2   -0.8268929331D-01
   3   -0.9088666240D-01
   4    0.1413993071D-01
   5    0.9523741808D-01
   6    0.9321477052D-06
 -----------------------------------------------------------------------------------------------
                       Internal Coordinate Forces (Hartree/Bohr or radian)
  Cent   Atom   N1       Length/X         N2         Alpha/Y        N3         Beta/Z          J
 -----------------------------------------------------------------------------------------------
      1  H 
      2  N        1  -0.001974(     1)
      3  C        2  -0.082689(     2)      1   0.014140(     4)
      4  O        3  -0.090887(     3)      2   0.095237(     5)      1   0.000001(     6)     0
 -----------------------------------------------------------------------------------------------
 Internal  Forces:  Max     0.095237418 RMS     0.063733698
 Force constants in Cartesian coordinates: 
                1             2             3             4             5 
      1  0.608120D-01
      2  0.000000D+00  0.603031D-02
      3  0.241329D-01  0.000000D+00  0.526147D+00
      4 -0.308832D-01  0.205219D-05 -0.429673D-01  0.288824D+00
      5  0.000000D+00 -0.707047D-02  0.000000D+00  0.191413D-05  0.557313D-01
      6  0.403598D-01  0.000000D+00 -0.512985D+00  0.137570D+00  0.296094D-05
      7 -0.220179D-01 -0.118344D-05  0.183779D-01 -0.167150D+00  0.000000D+00
      8  0.000000D+00 -0.335772D-02  0.000000D+00 -0.146190D-05 -0.684568D-01
      9 -0.639872D-01  0.000000D+00 -0.200748D-01  0.165158D-01  0.000000D+00
     10 -0.791089D-02  0.000000D+00  0.456513D-03 -0.907905D-01 -0.262264D-05
     11  0.000000D+00  0.439788D-02  0.000000D+00 -0.250443D-05  0.197960D-01
     12 -0.505508D-03  0.000000D+00  0.691230D-02 -0.111118D+00 -0.262258D-05
                6             7             8             9            10 
      6  0.696687D+00
      7 -0.843739D-01  0.364351D+00
      8  0.000000D+00  0.144362D-04  0.156913D+00
      9 -0.123069D+00  0.278901D+00  0.260913D-04  0.703964D+00
     10 -0.935555D-01 -0.175183D+00 -0.129796D-04 -0.231430D+00  0.273885D+00
     11 -0.335990D-05 -0.130249D-04 -0.850986D-01 -0.257322D-04  0.159270D-04
     12 -0.606328D-01 -0.212905D+00 -0.257697D-04 -0.560820D+00  0.324529D+00
               11            12 
     11  0.609047D-01
     12  0.284807D-04  0.614540D+00
 FCInt: Cartesian first derivatives: 
                 1             2             3             4 
      1  -0.712042D-02  0.988082D-01 -0.877687D-01 -0.391906D-02
      2   0.000000D+00 -0.220668D-05  0.950282D-05 -0.680087D-05
      3   0.197426D-02 -0.173088D-01  0.114891D+00 -0.995564D-01
 FCInt: Cartesian force constants: 
                1             2             3             4             5 
      1  0.608120D-01
      2  0.000000D+00  0.603031D-02
      3  0.241329D-01  0.000000D+00  0.526147D+00
      4 -0.308832D-01  0.205219D-05 -0.429673D-01  0.288824D+00
      5  0.000000D+00 -0.707047D-02  0.000000D+00  0.191413D-05  0.557313D-01
      6  0.403598D-01  0.000000D+00 -0.512985D+00  0.137570D+00  0.296094D-05
      7 -0.220179D-01 -0.118344D-05  0.183779D-01 -0.167150D+00  0.000000D+00
      8  0.000000D+00 -0.335772D-02  0.000000D+00 -0.146190D-05 -0.684568D-01
      9 -0.639872D-01  0.000000D+00 -0.200748D-01  0.165158D-01  0.000000D+00
     10 -0.791089D-02  0.000000D+00  0.456513D-03 -0.907905D-01 -0.262264D-05
     11  0.000000D+00  0.439788D-02  0.000000D+00 -0.250443D-05  0.197960D-01
     12 -0.505508D-03  0.000000D+00  0.691230D-02 -0.111118D+00 -0.262258D-05
                6             7             8             9            10 
      6  0.696687D+00
      7 -0.843739D-01  0.364351D+00
      8  0.000000D+00  0.144362D-04  0.156913D+00
      9 -0.123069D+00  0.278901D+00  0.260913D-04  0.703964D+00
     10 -0.935555D-01 -0.175183D+00 -0.129796D-04 -0.231430D+00  0.273885D+00
     11 -0.335990D-05 -0.130249D-04 -0.850986D-01 -0.257322D-04  0.159270D-04
     12 -0.606328D-01 -0.212905D+00 -0.257697D-04 -0.560820D+00  0.324529D+00
               11            12 
     11  0.609047D-01
     12  0.284807D-04  0.614540D+00
 Internal force constants: 
                1             2             3             4             5 
      1  0.526147D+00
      2 -0.139428D-01  0.371598D+00
      3 -0.639247D-02  0.164309D+00  0.805777D+00
      4  0.408033D-01  0.955478D-01  0.789416D-02  0.235892D+00
      5  0.622722D-02  0.128098D+00  0.991831D-01  0.317733D-01  0.237795D+00
      6  0.000000D+00  0.286750D-05  0.000000D+00 -0.174614D-05  0.201114D-05
                6 
      6  0.139310D-01
 Frcnst in PutFF: 
                1             2             3             4             5 
      1  0.526147D+00
      2 -0.139428D-01  0.371598D+00
      3 -0.639247D-02  0.164309D+00  0.805777D+00
      4  0.408033D-01  0.955478D-01  0.789416D-02  0.235892D+00
      5  0.622722D-02  0.128098D+00  0.991831D-01  0.317733D-01  0.237795D+00
      6  0.000000D+00  0.286750D-05  0.000000D+00 -0.174614D-05  0.201114D-05
                6 
      6  0.139310D-01
 Force constants in internal coordinates: 
                1             2             3             4             5 
      1  0.526147D+00
      2 -0.139428D-01  0.371598D+00
      3 -0.639247D-02  0.164309D+00  0.805777D+00
      4  0.408033D-01  0.955478D-01  0.789416D-02  0.235892D+00
      5  0.622722D-02  0.128098D+00  0.991831D-01  0.317733D-01  0.237795D+00
      6  0.000000D+00  0.286750D-05  0.000000D+00 -0.174614D-05  0.201114D-05
                6 
      6  0.139310D-01
 Final forces over variables, Energy=-1.65456602D+02:
 -1.97425812D-03-8.26892933D-02-9.08866624D-02 1.41399307D-02
  9.52374181D-02 9.32147705D-07
 Leave Link  716 at Fri Apr 15 18:54:12 2022, MaxMem=   131072000 cpu:               0.0 elap:               0.0
 (Enter C:\G16W\l103.exe)

 GradGradGradGradGradGradGradGradGradGradGradGradGradGradGradGradGradGrad
 Berny optimization.
 Search for a local minimum.
 Step number   1 out of a maximum of    2
 All quantities printed in internal units (Hartrees-Bohrs-Radians)
 Second derivative matrix not updated -- analytic derivatives used.
 The second derivative matrix:
                          B1        B2        B3        A1        A2
           B1           0.52615
           B2          -0.01394   0.37160
           B3          -0.00639   0.16431   0.80578
           A1           0.04080   0.09555   0.00789   0.23589
           A2           0.00623   0.12810   0.09918   0.03177   0.23780
           D1           0.00000   0.00000   0.00000   0.00000   0.00000
                          D1
           D1           0.01393
 ITU=  0
     Eigenvalues ---    0.01393   0.14743   0.19736   0.40722   0.53228
     Eigenvalues ---    0.89293
 Quadratic step=8.260D-01 exceeds max=3.000D-01 adjusted using Lamda=-2.800D-01.
 Angle between NR and scaled steps=   8.84 degrees.
 Angle between quadratic step and forces=  20.91 degrees.
 Linear search not attempted -- first point.
 Variable       Old X    -DE/DX   Delta X   Delta X   Delta X     New X
                                 (Linear)    (Quad)   (Total)
    B1        1.98583  -0.00197   0.00000  -0.00993  -0.00993   1.97590
    B2        2.57499  -0.08269   0.00000  -0.15954  -0.15954   2.41545
    B3        2.33298  -0.09089   0.00000  -0.08154  -0.08154   2.25144
    A1        1.87962   0.01414   0.00000   0.04443   0.04443   1.92405
    A2        2.34112   0.09524   0.00000   0.23640   0.23640   2.57752
    D1        3.14153   0.00000   0.00000   0.00000   0.00000   3.14153
         Item               Value     Threshold  Converged?
 Maximum Force            0.095237     0.000450     NO 
 RMS     Force            0.063734     0.000300     NO 
 Maximum Displacement     0.236404     0.001800     NO 
 RMS     Displacement     0.122516     0.001200     NO 
 Predicted change in Energy=-3.449187D-02
                       ----------------------------
                       ! Non-Optimized Parameters !
                       ! (Angstroms and Degrees)  !
 ----------------------                            ----------------------
 !      Name          Value   Derivative information (Atomic Units)     !
 ------------------------------------------------------------------------
 !       B1          1.0456   -DE/DX =   -0.002                         !
 !       B2          1.2782   -DE/DX =   -0.0827                        !
 !       B3          1.1914   -DE/DX =   -0.0909                        !
 !       A1        110.2401   -DE/DX =    0.0141                        !
 !       A2        147.6812   -DE/DX =    0.0952                        !
 !       D1        179.9964   -DE/DX =    0.0                           !
 ------------------------------------------------------------------------
 GradGradGradGradGradGradGradGradGradGradGradGradGradGradGradGradGradGrad

 Leave Link  103 at Fri Apr 15 18:54:12 2022, MaxMem=   131072000 cpu:               0.0 elap:               0.0
 (Enter C:\G16W\l9999.exe)

 ----------------------------------------------------------------------

 Electric dipole moment (input orientation):
 (Debye = 10**-18 statcoulomb cm , SI units = C m)
                  (au)            (Debye)         (10**-30 SI)
   Tot        0.829778D+00      0.210908D+01      0.703515D+01
   x          0.394274D+00      0.100215D+01      0.334280D+01
   y         -0.169021D-04     -0.429608D-04     -0.143302D-03
   z         -0.730123D+00     -0.185579D+01     -0.619024D+01

 Dipole polarizability, Alpha (input orientation).
 (esu units = cm**3 , SI units = C**2 m**2 J**-1)
 Alpha(0;0):
               (au)            (10**-24 esu)      (10**-40 SI)
   iso        0.114444D+02      0.169588D+01      0.188692D+01
   aniso      0.185278D+02      0.274554D+01      0.305483D+01
   xx         0.153204D+02      0.227025D+01      0.252599D+01
   yx         0.382365D-04      0.566607D-05      0.630435D-05
   yy         0.337582D+01      0.500245D+00      0.556597D+00
   zx         0.809788D+01      0.119998D+01      0.133516D+01
   zy         0.272085D-03      0.403189D-04      0.448608D-04
   zz         0.156369D+02      0.231716D+01      0.257818D+01

 First dipole hyperpolarizability, Beta (input orientation).
 ||, _|_  parallel and perpendicular components, (z) with respect to z axis,
 vector components x,y,z.  Values do not include the 1/n! factor of 1/2.
 (esu units = statvolt**-1 cm**4 , SI units = C**3 m**3 J**-2)
 Beta(0;0,0):
               (au)            (10**-30 esu)      (10**-50 SI)
   || (z)    -0.784233D+01     -0.677516D-01     -0.251453D-01
   _|_(z)    -0.261411D+01     -0.225839D-01     -0.838178D-02
   x          0.130217D+03      0.112498D+01      0.417524D+00
   y         -0.741184D-02     -0.640326D-04     -0.237651D-04
   z         -0.392116D+02     -0.338758D+00     -0.125727D+00
   ||         0.271986D+02      0.234975D+00      0.872086D-01
   xxx        0.363354D+02      0.313910D+00      0.116504D+00
   xxy       -0.194804D-02     -0.168295D-04     -0.624611D-05
   yxy        0.144166D+02      0.124549D+00      0.462250D-01
   yyy        0.540510D-03      0.466958D-05      0.173307D-05
   xxz        0.659176D+01      0.569477D-01      0.211356D-01
   yxz       -0.136749D-02     -0.118141D-04     -0.438467D-05
   yyz        0.653020D+01      0.564159D-01      0.209382D-01
   zxz       -0.734627D+01     -0.634660D-01     -0.235548D-01
   zyz       -0.106309D-02     -0.918425D-05     -0.340865D-05
   zzz       -0.261925D+02     -0.226283D+00     -0.839826D-01

 ----------------------------------------------------------------------

 Dipole orientation:
     1          0.00000000          0.00000000          0.00000000
     7          0.94357804          0.00004045         -1.74733122
     6          3.47400573          0.00004376         -1.27034203
     8          5.38065286         -0.00003067         -2.61476939

 Electric dipole moment (dipole orientation):
 (Debye = 10**-18 statcoulomb cm , SI units = C m)
                  (au)            (Debye)         (10**-30 SI)
   Tot        0.829778D+00      0.210908D+01      0.703515D+01
   x          0.000000D+00      0.000000D+00      0.000000D+00
   y          0.000000D+00      0.000000D+00      0.000000D+00
   z          0.829778D+00      0.210908D+01      0.703515D+01

 Dipole polarizability, Alpha (dipole orientation).
 (esu units = cm**3 , SI units = C**2 m**2 J**-1)
 Alpha(0;0):
               (au)            (10**-24 esu)      (10**-40 SI)
   iso        0.114444D+02      0.169588D+01      0.188692D+01
   aniso      0.185278D+02      0.274554D+01      0.305483D+01
   xx         0.221632D+02      0.328424D+01      0.365421D+01
   yx         0.269615D-04      0.399528D-05      0.444535D-05
   yy         0.337582D+01      0.500245D+00      0.556597D+00
   zx        -0.457365D+01     -0.677745D+00     -0.754093D+00
   zy         0.873236D-04      0.129400D-04      0.143977D-04
   zz         0.879418D+01      0.130316D+01      0.144996D+01

 First dipole hyperpolarizability, Beta (dipole orientation).
 ||, _|_  parallel and perpendicular components, (z) with respect to z axis,
 vector components x,y,z.  Values do not include the 1/n! factor of 1/2.
 (esu units = statvolt**-1 cm**4 , SI units = C**3 m**3 J**-2)
 Beta(0;0,0):
               (au)            (10**-30 esu)      (10**-50 SI)
   || (z)     0.192752D+02      0.166523D+00      0.618032D-01
   _|_(z)     0.642507D+01      0.555076D-01      0.206011D-01
   x          0.959468D+02      0.828905D+00      0.307640D+00
   y          0.594271D-02      0.513403D-04      0.190545D-04
   z          0.963760D+02      0.832613D+00      0.309016D+00
   ||         0.271986D+02      0.234975D+00      0.872086D-01
   xxx        0.248401D+02      0.214599D+00      0.796462D-01
   xxy        0.242284D-02      0.209314D-04      0.776849D-05
   yxy        0.157881D+02      0.136397D+00      0.506223D-01
   yyy       -0.364133D-03     -0.314582D-05     -0.116754D-05
   xxz        0.213158D+02      0.184152D+00      0.683461D-01
   yxz        0.221749D-03      0.191574D-05      0.711009D-06
   yyz        0.110423D+01      0.953966D-02      0.354055D-02
   zxz       -0.864591D+01     -0.746939D-01     -0.277219D-01
   zyz       -0.778036D-04     -0.672162D-06     -0.249466D-06
   zzz        0.970531D+01      0.838463D-01      0.311187D-01

 ----------------------------------------------------------------------

 Test job not archived.
 1|1|UNPC-DESKTOP-RNC6JTU|Freq|RHF|STO-3G|C1H1N1O1|BNULK|15-Apr-2022|1|
 |#p sto-3g scf=maxcycle=999 freq=noraman IOP(7/33=1) hf||T1||0,1|H|N,1
 ,B1|C,2,B2,1,A1|O,3,B3,2,A2,1,D1,0||B1=1.050854|B2=1.362627|B3=1.23455
 9|A1=107.69446|A2=134.13625|D1=179.99618||Version=EM64W-G16RevA.03|Sta
 te=1-A|HF=-165.4566021|RMSD=6.179e-009|RMSF=5.841e-002|ZeroPoint=0.020
 6532|Thermal=0.0238885|Dipole=0.3942743,-0.0000169,-0.7301227|DipoleDe
 riv=0.3002719,0.0000058,0.1926309,-0.0000084,0.2972066,-0.0000055,0.08
 69604,-0.0000016,-0.0062598,-0.6819203,-0.0000384,-0.6999563,0.0000053
 ,-0.52195,0.0000078,-0.1196108,0.0000005,-0.1464524,0.8013662,0.000040
 3,0.729287,0.0000392,0.37593,0.000016,0.5373666,0.000006,0.5661415,-0.
 4197179,-0.0000078,-0.2219616,-0.0000361,-0.1511866,-0.0000184,-0.5047
 162,-0.0000049,-0.4134293|Polar=15.3203911,0.0000382,3.3758186,8.09787
 8,0.0002721,15.6369467|HyperPolar=36.3354042,-0.001948,14.4166481,0.00
 05405,6.5917591,-0.0013675,6.5302044,-7.3462658,-0.0010631,-26.1925067
 |Quadrupole=-1.4240743,0.1710231,1.2530513,-0.0000801,-0.5376124,-0.00
 00365|PG=C01 [X(C1H1N1O1)]|NImag=0||0.06081205,-0.00000054,0.00603031,
 0.02413289,0.00000041,0.52614706,-0.03088325,0.00000205,-0.04296734,0.
 28882418,0.00000094,-0.00707047,-0.00000017,0.00000191,0.05573125,0.04
 035980,-0.00000013,-0.51298458,0.13756963,0.00000296,0.69668679,-0.022
 01791,-0.00000118,0.01837794,-0.16715041,-0.00000023,-0.08437394,0.364
 35145,0.,-0.00335772,-0.00000085,-0.00000146,-0.06845678,0.00000053,0.
 00001444,0.15691313,-0.06398718,-0.00000019,-0.02007478,0.01651580,-0.
 00000017,-0.12306940,0.27890140,0.00002609,0.70396374,-0.00791089,-0.0
 0000032,0.00045651,-0.09079053,-0.00000262,-0.09355549,-0.17518313,-0.
 00001298,-0.23143001,0.27388454,-0.00000040,0.00439788,0.00000061,-0.0
 0000250,0.01979600,-0.00000336,-0.00001302,-0.08509863,-0.00002573,0.0
 0001593,0.06090475,-0.00050551,-0.00000009,0.00691230,-0.11111808,-0.0
 0000262,-0.06063281,-0.21290540,-0.00002577,-0.56081955,0.32452899,0.0
 0002848,0.61454006||0.00712042,0.00000050,-0.00197426,-0.09880819,0.00
 000221,0.01730883,0.08776871,-0.00000950,-0.11489100,0.00391906,0.0000
 0680,0.09955643|||@


 I WANT TO KNOW HOW GOD CREATED THE WORLD.  I AM NOT INTERESTED IN
 THIS OR THAT PHENOMENON, IN THE SPECTRUM OF THIS OR THAT ELEMENT.
 I WANT TO KNOW HIS THOUGHTS, THE REST ARE DETAILS.
     -- ALBERT EINSTEIN
 Job cpu time:       0 days  0 hours  0 minutes  2.0 seconds.
 Elapsed time:       0 days  0 hours  0 minutes  1.4 seconds.
 File lengths (MBytes):  RWF=      6 Int=      0 D2E=      0 Chk=      1 Scr=      1
 Normal termination of Gaussian 16 at Fri Apr 15 18:54:12 2022.
