 Entering Gaussian System, Link 0=g16
 Input=State1_1.gjf
 Output=State1_1.out
 Initial command:
 C:\G16W\l1.exe ".\Gau-2132.inp" "State1_1.out" /scrdir=".\"
 Entering Link 1 = C:\G16W\l1.exe PID=     22320.
  
 Copyright (c) 1988,1990,1992,1993,1995,1998,2003,2009,2016,
            Gaussian, Inc.  All Rights Reserved.
  
 This is part of the Gaussian(R) 16 program.  It is based on
 the Gaussian(R) 09 system (copyright 2009, Gaussian, Inc.),
 the Gaussian(R) 03 system (copyright 2003, Gaussian, Inc.),
 the Gaussian(R) 98 system (copyright 1998, Gaussian, Inc.),
 the Gaussian(R) 94 system (copyright 1995, Gaussian, Inc.),
 the Gaussian 92(TM) system (copyright 1992, Gaussian, Inc.),
 the Gaussian 90(TM) system (copyright 1990, Gaussian, Inc.),
 the Gaussian 88(TM) system (copyright 1988, Gaussian, Inc.),
 the Gaussian 86(TM) system (copyright 1986, Carnegie Mellon
 University), and the Gaussian 82(TM) system (copyright 1983,
 Carnegie Mellon University). Gaussian is a federally registered
 trademark of Gaussian, Inc.
  
 This software contains proprietary and confidential information,
 including trade secrets, belonging to Gaussian, Inc.
  
 This software is provided under written license and may be
 used, copied, transmitted, or stored only in accord with that
 written license.
  
 The following legend is applicable only to US Government
 contracts under FAR:
  
                    RESTRICTED RIGHTS LEGEND
  
 Use, reproduction and disclosure by the US Government is
 subject to restrictions as set forth in subparagraphs (a)
 and (c) of the Commercial Computer Software - Restricted
 Rights clause in FAR 52.227-19.
  
 Gaussian, Inc.
 340 Quinnipiac St., Bldg. 40, Wallingford CT 06492
  
  
 ---------------------------------------------------------------
 Warning -- This program may not be used in any manner that
 competes with the business of Gaussian, Inc. or will provide
 assistance to any competitor of Gaussian, Inc.  The licensee
 of this program is prohibited from giving any competitor of
 Gaussian, Inc. access to this program.  By using this program,
 the user acknowledges that Gaussian, Inc. is engaged in the
 business of creating and licensing software in the field of
 computational chemistry and represents and warrants to the
 licensee that it is not a competitor of Gaussian, Inc. and that
 it will not use this program in any manner prohibited above.
 ---------------------------------------------------------------
  

 Cite this work as:
 Gaussian 16, Revision A.03,
 M. J. Frisch, G. W. Trucks, H. B. Schlegel, G. E. Scuseria, 
 M. A. Robb, J. R. Cheeseman, G. Scalmani, V. Barone, 
 G. A. Petersson, H. Nakatsuji, X. Li, M. Caricato, A. V. Marenich, 
 J. Bloino, B. G. Janesko, R. Gomperts, B. Mennucci, H. P. Hratchian, 
 J. V. Ortiz, A. F. Izmaylov, J. L. Sonnenberg, D. Williams-Young, 
 F. Ding, F. Lipparini, F. Egidi, J. Goings, B. Peng, A. Petrone, 
 T. Henderson, D. Ranasinghe, V. G. Zakrzewski, J. Gao, N. Rega, 
 G. Zheng, W. Liang, M. Hada, M. Ehara, K. Toyota, R. Fukuda, 
 J. Hasegawa, M. Ishida, T. Nakajima, Y. Honda, O. Kitao, H. Nakai, 
 T. Vreven, K. Throssell, J. A. Montgomery, Jr., J. E. Peralta, 
 F. Ogliaro, M. J. Bearpark, J. J. Heyd, E. N. Brothers, K. N. Kudin, 
 V. N. Staroverov, T. A. Keith, R. Kobayashi, J. Normand, 
 K. Raghavachari, A. P. Rendell, J. C. Burant, S. S. Iyengar, 
 J. Tomasi, M. Cossi, J. M. Millam, M. Klene, C. Adamo, R. Cammi, 
 J. W. Ochterski, R. L. Martin, K. Morokuma, O. Farkas, 
 J. B. Foresman, and D. J. Fox, Gaussian, Inc., Wallingford CT, 2016.
 
 ******************************************
 Gaussian 16:  EM64W-G16RevA.03 17-Dec-2016
                15-Apr-2022 
 ******************************************
 %mem=1000mb
 %chk=LiuKun1.chk
 ------------------------------------------------------
 #p sto-3g scf=maxcycle=999 freq=noraman IOP(7/33=1) hf
 ------------------------------------------------------
 1/10=4,30=1,38=1/1,3;
 2/12=2,17=6,18=5,40=1/2;
 3/6=3,11=9,25=1,30=1,71=2,140=1/1,2,3;
 4//1;
 5/5=2,7=999,38=5,98=1/2;
 8/6=4,10=90,11=11/1;
 11/6=1,8=1,9=11,15=111,16=1/1,2,10;
 10/6=1/2;
 6/7=2,8=2,9=2,10=2,28=1/1;
 7/8=1,10=1,25=1,33=1/1,2,3,16;
 1/10=4,30=1/3;
 99//99;
 Leave Link    1 at Fri Apr 15 18:53:54 2022, MaxMem=   131072000 cpu:               0.0 elap:               0.0
 (Enter C:\G16W\l101.exe)
 --
 T1
 --
 Symbolic Z-matrix:
 Charge =  0 Multiplicity = 1
 H
 N                    1    B1
 C                    2    B2       1    A1
 O                    3    B3       2    A2       1    D1       0
       Variables:
  B1                    1.05645                  
  B2                    1.47516                  
  B3                    1.05675                  
  A1                  105.24637                  
  A2                  118.29743                  
  D1                  179.73123                  
 
 ITRead=  0  0  0  0
 MicOpt= -1 -1 -1 -1
 NAtoms=      4 NQM=        4 NQMF=       0 NMMI=      0 NMMIF=      0
                NMic=       0 NMicF=      0.
                    Isotopes and Nuclear Properties:
 (Nuclear quadrupole moments (NQMom) in fm**2, nuclear magnetic moments (NMagM)
  in nuclear magnetons)

  Atom         1           2           3           4
 IAtWgt=           1          14          12          16
 AtmWgt=   1.0078250  14.0030740  12.0000000  15.9949146
 NucSpn=           1           2           0           0
 AtZEff=   0.0000000   0.0000000   0.0000000   0.0000000
 NQMom=    0.0000000   2.0440000   0.0000000   0.0000000
 NMagM=    2.7928460   0.4037610   0.0000000   0.0000000
 AtZNuc=   1.0000000   7.0000000   6.0000000   8.0000000
 Leave Link  101 at Fri Apr 15 18:53:54 2022, MaxMem=   131072000 cpu:               0.0 elap:               0.1
 (Enter C:\G16W\l103.exe)

 GradGradGradGradGradGradGradGradGradGradGradGradGradGradGradGradGradGrad
 Berny optimization.
 Initialization pass.
                       ----------------------------
                       !    Initial Parameters    !
                       ! (Angstroms and Degrees)  !
 ----------------------                            ----------------------
 !      Name          Value   Derivative information (Atomic Units)     !
 ------------------------------------------------------------------------
 !       B1          1.0564   calculate D2E/DX2 analytically            !
 !       B2          1.4752   calculate D2E/DX2 analytically            !
 !       B3          1.0568   calculate D2E/DX2 analytically            !
 !       A1        105.2464   calculate D2E/DX2 analytically            !
 !       A2        118.2974   calculate D2E/DX2 analytically            !
 !       D1        179.7312   calculate D2E/DX2 analytically            !
 ------------------------------------------------------------------------
 Trust Radius=3.00D-01 FncErr=1.00D-07 GrdErr=1.00D-07 EigMax=2.50D+02 EigMin=1.00D-04
 Number of steps in this run=      2 maximum allowed number of steps=      2.
 GradGradGradGradGradGradGradGradGradGradGradGradGradGradGradGradGradGrad

 Leave Link  103 at Fri Apr 15 18:53:54 2022, MaxMem=   131072000 cpu:               0.0 elap:               0.0
 (Enter C:\G16W\l202.exe)
                          Input orientation:                          
 ---------------------------------------------------------------------
 Center     Atomic      Atomic             Coordinates (Angstroms)
 Number     Number       Type             X           Y           Z
 ---------------------------------------------------------------------
      1          1           0        0.000000    0.000000    0.000000
      2          7           0        0.000000    0.000000    1.056446
      3          6           0        1.423243    0.000000    1.444370
      4          8           0        1.661881    0.004365    2.473817
 ---------------------------------------------------------------------
                    Distance matrix (angstroms):
                    1          2          3          4
     1  H    0.000000
     2  N    1.056446   0.000000
     3  C    2.027764   1.475163   0.000000
     4  O    2.980208   2.184218   1.056754   0.000000
 Stoichiometry    CHNO
 Framework group  C1[X(CHNO)]
 Deg. of freedom     6
 Full point group                 C1      NOp   1
 Largest Abelian subgroup         C1      NOp   1
 Largest concise Abelian subgroup C1      NOp   1
                         Standard orientation:                         
 ---------------------------------------------------------------------
 Center     Atomic      Atomic             Coordinates (Angstroms)
 Number     Number       Type             X           Y           Z
 ---------------------------------------------------------------------
      1          1           0       -1.832303    0.532322    0.003150
      2          7           0       -1.119152   -0.247089   -0.000367
      3          6           0        0.192744    0.427472   -0.000672
      4          8           0        1.063738   -0.170941    0.000431
 ---------------------------------------------------------------------
 Rotational constants (GHZ):         134.1733035          12.8208027          11.7025842
 Leave Link  202 at Fri Apr 15 18:53:54 2022, MaxMem=   131072000 cpu:               0.0 elap:               0.0
 (Enter C:\G16W\l301.exe)
 Standard basis: STO-3G (5D, 7F)
 Ernie: Thresh=  0.10000D-02 Tol=  0.10000D-05 Strict=F.
 There are    16 symmetry adapted cartesian basis functions of A   symmetry.
 There are    16 symmetry adapted basis functions of A   symmetry.
    16 basis functions,    48 primitive gaussians,    16 cartesian basis functions
    11 alpha electrons       11 beta electrons
       nuclear repulsion energy        59.1626992592 Hartrees.
 IExCor=    0 DFT=F Ex=HF Corr=None ExCW=0 ScaHFX=  1.000000
 ScaDFX=  1.000000  1.000000  1.000000  1.000000 ScalE2=  1.000000  1.000000
 IRadAn=      5 IRanWt=     -1 IRanGd=            0 ICorTp=0 IEmpDi=  4
 NAtoms=    4 NActive=    4 NUniq=    4 SFac= 1.00D+00 NAtFMM=   60 NAOKFM=F Big=F
 Integral buffers will be    131072 words long.
 Raffenetti 1 integral format.
 Two-electron integral symmetry is turned on.
 Leave Link  301 at Fri Apr 15 18:53:55 2022, MaxMem=   131072000 cpu:               1.0 elap:               0.3
 (Enter C:\G16W\l302.exe)
 NPDir=0 NMtPBC=     1 NCelOv=     1 NCel=       1 NClECP=     1 NCelD=      1
         NCelK=      1 NCelE2=     1 NClLst=     1 CellRange=     0.0.
 One-electron integrals computed using PRISM.
 One-electron integral symmetry used in STVInt
 NBasis=    16 RedAO= T EigKep=  1.57D-01  NBF=    16
 NBsUse=    16 1.00D-06 EigRej= -1.00D+00 NBFU=    16
 Leave Link  302 at Fri Apr 15 18:53:55 2022, MaxMem=   131072000 cpu:               0.0 elap:               0.1
 (Enter C:\G16W\l303.exe)
 DipDrv:  MaxL=1.
 Leave Link  303 at Fri Apr 15 18:53:55 2022, MaxMem=   131072000 cpu:               0.0 elap:               0.0
 (Enter C:\G16W\l401.exe)
 ExpMin= 1.69D-01 ExpMax= 1.31D+02 ExpMxC= 1.31D+02 IAcc=3 IRadAn=         5 AccDes= 0.00D+00
 Harris functional with IExCor=  205 and IRadAn=       5 diagonalized for initial guess.
 HarFok:  IExCor=  205 AccDes= 0.00D+00 IRadAn=         5 IDoV= 1 UseB2=F ITyADJ=14
 ICtDFT=  3500011 ScaDFX=  1.000000  1.000000  1.000000  1.000000
 FoFCou: FMM=F IPFlag=           0 FMFlag=      100000 FMFlg1=           0
         NFxFlg=           0 DoJE=T BraDBF=F KetDBF=T FulRan=T
         wScrn=  0.000000 ICntrl=       500 IOpCl=  0 I1Cent=   200000004 NGrid=           0
         NMat0=    1 NMatS0=      1 NMatT0=    0 NMatD0=    1 NMtDS0=    0 NMtDT0=    0
 Petite list used in FoFCou.
 Harris En= -165.389307359638    
 JPrj=0 DoOrth=F DoCkMO=F.
 Leave Link  401 at Fri Apr 15 18:53:55 2022, MaxMem=   131072000 cpu:               0.0 elap:               0.2
 (Enter C:\G16W\l502.exe)
 Keep R1 ints in memory in canonical form, NReq=814172.
 FoFCou: FMM=F IPFlag=           0 FMFlag=           0 FMFlg1=           0
         NFxFlg=           0 DoJE=F BraDBF=F KetDBF=F FulRan=T
         wScrn=  0.000000 ICntrl=       600 IOpCl=  0 I1Cent=           0 NGrid=           0
         NMat0=    1 NMatS0=    136 NMatT0=    0 NMatD0=    1 NMtDS0=    0 NMtDT0=    0
 Symmetry not used in FoFCou.
 Two-electron integral symmetry not used.
 Closed shell SCF:
 Using DIIS extrapolation, IDIIS=  1040.
 NGot=   131072000 LenX=   131061257 LenY=   131060375
 Requested convergence on RMS density matrix=1.00D-08 within 999 cycles.
 Requested convergence on MAX density matrix=1.00D-06.
 Requested convergence on             energy=1.00D-06.
 No special actions if energy rises.

 Cycle   1  Pass 1  IDiag  1:
 E= -165.289611149476    
 DIIS: error= 5.33D-02 at cycle   1 NSaved=   1.
 NSaved= 1 IEnMin= 1 EnMin= -165.289611149476     IErMin= 1 ErrMin= 5.33D-02
 ErrMax= 5.33D-02  0.00D+00 EMaxC= 1.00D-01 BMatC= 6.27D-02 BMatP= 6.27D-02
 IDIUse=3 WtCom= 4.67D-01 WtEn= 5.33D-01
 Coeff-Com:  0.100D+01
 Coeff-En:   0.100D+01
 Coeff:      0.100D+01
 Gap=     0.320 Goal=   None    Shift=    0.000
 GapD=    0.320 DampG=1.000 DampE=0.500 DampFc=0.5000 IDamp=-1.
 Damping current iteration by 5.00D-01
 RMSDP=2.90D-02 MaxDP=1.68D-01              OVMax= 0.00D+00

 Cycle   2  Pass 1  IDiag  1:
 E= -165.324999740474     Delta-E=       -0.035388590999 Rises=F Damp=T
 DIIS: error= 1.56D-02 at cycle   2 NSaved=   2.
 NSaved= 2 IEnMin= 2 EnMin= -165.324999740474     IErMin= 2 ErrMin= 1.56D-02
 ErrMax= 1.56D-02  0.00D+00 EMaxC= 1.00D-01 BMatC= 8.47D-03 BMatP= 6.27D-02
 IDIUse=3 WtCom= 8.44D-01 WtEn= 1.56D-01
 Coeff-Com: -0.314D+00 0.131D+01
 Coeff-En:   0.000D+00 0.100D+01
 Coeff:     -0.265D+00 0.126D+01
 Gap=     0.451 Goal=   None    Shift=    0.000
 RMSDP=8.33D-03 MaxDP=4.55D-02 DE=-3.54D-02 OVMax= 0.00D+00

 Cycle   3  Pass 1  IDiag  1:
 E= -165.362932700612     Delta-E=       -0.037932960138 Rises=F Damp=F
 DIIS: error= 5.17D-03 at cycle   3 NSaved=   3.
 NSaved= 3 IEnMin= 3 EnMin= -165.362932700612     IErMin= 3 ErrMin= 5.17D-03
 ErrMax= 5.17D-03  0.00D+00 EMaxC= 1.00D-01 BMatC= 1.08D-03 BMatP= 8.47D-03
 IDIUse=3 WtCom= 9.48D-01 WtEn= 5.17D-02
 Coeff-Com: -0.102D+00 0.781D-01 0.102D+01
 Coeff-En:   0.000D+00 0.000D+00 0.100D+01
 Coeff:     -0.970D-01 0.741D-01 0.102D+01
 Gap=     0.455 Goal=   None    Shift=    0.000
 RMSDP=4.25D-03 MaxDP=2.66D-02 DE=-3.79D-02 OVMax= 0.00D+00

 Cycle   4  Pass 1  IDiag  1:
 E= -165.365866589703     Delta-E=       -0.002933889091 Rises=F Damp=F
 DIIS: error= 4.32D-03 at cycle   4 NSaved=   4.
 NSaved= 4 IEnMin= 4 EnMin= -165.365866589703     IErMin= 4 ErrMin= 4.32D-03
 ErrMax= 4.32D-03  0.00D+00 EMaxC= 1.00D-01 BMatC= 2.18D-04 BMatP= 1.08D-03
 IDIUse=3 WtCom= 9.57D-01 WtEn= 4.32D-02
 Coeff-Com:  0.259D-02-0.629D-01-0.714D-02 0.107D+01
 Coeff-En:   0.000D+00 0.000D+00 0.000D+00 0.100D+01
 Coeff:      0.248D-02-0.602D-01-0.683D-02 0.106D+01
 Gap=     0.463 Goal=   None    Shift=    0.000
 RMSDP=2.62D-03 MaxDP=1.30D-02 DE=-2.93D-03 OVMax= 0.00D+00

 Cycle   5  Pass 1  IDiag  1:
 E= -165.366737762319     Delta-E=       -0.000871172616 Rises=F Damp=F
 DIIS: error= 2.00D-03 at cycle   5 NSaved=   5.
 NSaved= 5 IEnMin= 5 EnMin= -165.366737762319     IErMin= 5 ErrMin= 2.00D-03
 ErrMax= 2.00D-03  0.00D+00 EMaxC= 1.00D-01 BMatC= 7.34D-05 BMatP= 2.18D-04
 IDIUse=3 WtCom= 9.80D-01 WtEn= 2.00D-02
 Coeff-Com:  0.373D-01-0.437D-01-0.365D+00 0.190D+00 0.118D+01
 Coeff-En:   0.000D+00 0.000D+00 0.000D+00 0.000D+00 0.100D+01
 Coeff:      0.365D-01-0.428D-01-0.357D+00 0.186D+00 0.118D+01
 Gap=     0.467 Goal=   None    Shift=    0.000
 RMSDP=2.24D-03 MaxDP=1.01D-02 DE=-8.71D-04 OVMax= 0.00D+00

 Cycle   6  Pass 1  IDiag  1:
 E= -165.367118515446     Delta-E=       -0.000380753127 Rises=F Damp=F
 DIIS: error= 1.11D-03 at cycle   6 NSaved=   6.
 NSaved= 6 IEnMin= 6 EnMin= -165.367118515446     IErMin= 6 ErrMin= 1.11D-03
 ErrMax= 1.11D-03  0.00D+00 EMaxC= 1.00D-01 BMatC= 9.96D-06 BMatP= 7.34D-05
 IDIUse=3 WtCom= 9.89D-01 WtEn= 1.11D-02
 Coeff-Com: -0.233D-01 0.253D-01 0.352D+00-0.331D+00-0.942D+00 0.192D+01
 Coeff-En:   0.000D+00 0.000D+00 0.000D+00 0.000D+00 0.000D+00 0.100D+01
 Coeff:     -0.231D-01 0.251D-01 0.349D+00-0.327D+00-0.931D+00 0.191D+01
 Gap=     0.468 Goal=   None    Shift=    0.000
 RMSDP=1.08D-03 MaxDP=5.43D-03 DE=-3.81D-04 OVMax= 0.00D+00

 Cycle   7  Pass 1  IDiag  1:
 E= -165.367194050899     Delta-E=       -0.000075535452 Rises=F Damp=F
 DIIS: error= 2.61D-04 at cycle   7 NSaved=   7.
 NSaved= 7 IEnMin= 7 EnMin= -165.367194050899     IErMin= 7 ErrMin= 2.61D-04
 ErrMax= 2.61D-04  0.00D+00 EMaxC= 1.00D-01 BMatC= 1.29D-06 BMatP= 9.96D-06
 IDIUse=3 WtCom= 9.97D-01 WtEn= 2.61D-03
 Coeff-Com:  0.138D-01-0.159D-01-0.228D+00 0.229D+00 0.547D+00-0.152D+01
 Coeff-Com:  0.198D+01
 Coeff-En:   0.000D+00 0.000D+00 0.000D+00 0.000D+00 0.000D+00 0.000D+00
 Coeff-En:   0.100D+01
 Coeff:      0.138D-01-0.159D-01-0.227D+00 0.228D+00 0.545D+00-0.152D+01
 Coeff:      0.197D+01
 Gap=     0.469 Goal=   None    Shift=    0.000
 RMSDP=5.75D-04 MaxDP=2.57D-03 DE=-7.55D-05 OVMax= 0.00D+00

 Cycle   8  Pass 1  IDiag  1:
 E= -165.367205948961     Delta-E=       -0.000011898062 Rises=F Damp=F
 DIIS: error= 8.72D-05 at cycle   8 NSaved=   8.
 NSaved= 8 IEnMin= 8 EnMin= -165.367205948961     IErMin= 8 ErrMin= 8.72D-05
 ErrMax= 8.72D-05  0.00D+00 EMaxC= 1.00D-01 BMatC= 1.53D-07 BMatP= 1.29D-06
 IDIUse=1 WtCom= 1.00D+00 WtEn= 0.00D+00
 Coeff-Com: -0.354D-02 0.299D-02 0.905D-01-0.973D-01-0.155D+00 0.610D+00
 Coeff-Com: -0.108D+01 0.163D+01
 Coeff:     -0.354D-02 0.299D-02 0.905D-01-0.973D-01-0.155D+00 0.610D+00
 Coeff:     -0.108D+01 0.163D+01
 Gap=     0.469 Goal=   None    Shift=    0.000
 RMSDP=8.43D-05 MaxDP=3.68D-04 DE=-1.19D-05 OVMax= 0.00D+00

 Cycle   9  Pass 1  IDiag  1:
 E= -165.367206478561     Delta-E=       -0.000000529600 Rises=F Damp=F
 DIIS: error= 2.19D-05 at cycle   9 NSaved=   9.
 NSaved= 9 IEnMin= 9 EnMin= -165.367206478561     IErMin= 9 ErrMin= 2.19D-05
 ErrMax= 2.19D-05  0.00D+00 EMaxC= 1.00D-01 BMatC= 1.03D-08 BMatP= 1.53D-07
 IDIUse=1 WtCom= 1.00D+00 WtEn= 0.00D+00
 Coeff-Com: -0.315D-03 0.998D-03-0.128D-01 0.130D-01 0.333D-02-0.802D-01
 Coeff-Com:  0.194D+00-0.494D+00 0.138D+01
 Coeff:     -0.315D-03 0.998D-03-0.128D-01 0.130D-01 0.333D-02-0.802D-01
 Coeff:      0.194D+00-0.494D+00 0.138D+01
 Gap=     0.469 Goal=   None    Shift=    0.000
 RMSDP=3.63D-05 MaxDP=1.55D-04 DE=-5.30D-07 OVMax= 0.00D+00

 Cycle  10  Pass 1  IDiag  1:
 E= -165.367206526083     Delta-E=       -0.000000047523 Rises=F Damp=F
 DIIS: error= 2.92D-06 at cycle  10 NSaved=  10.
 NSaved=10 IEnMin=10 EnMin= -165.367206526083     IErMin=10 ErrMin= 2.92D-06
 ErrMax= 2.92D-06  0.00D+00 EMaxC= 1.00D-01 BMatC= 2.53D-10 BMatP= 1.03D-08
 IDIUse=1 WtCom= 1.00D+00 WtEn= 0.00D+00
 Coeff-Com:  0.166D-03-0.409D-03 0.338D-02-0.319D-02 0.174D-02 0.207D-01
 Coeff-Com: -0.517D-01 0.143D+00-0.550D+00 0.144D+01
 Coeff:      0.166D-03-0.409D-03 0.338D-02-0.319D-02 0.174D-02 0.207D-01
 Coeff:     -0.517D-01 0.143D+00-0.550D+00 0.144D+01
 Gap=     0.469 Goal=   None    Shift=    0.000
 RMSDP=4.40D-06 MaxDP=1.96D-05 DE=-4.75D-08 OVMax= 0.00D+00

 Cycle  11  Pass 1  IDiag  1:
 E= -165.367206527007     Delta-E=       -0.000000000924 Rises=F Damp=F
 DIIS: error= 7.13D-07 at cycle  11 NSaved=  11.
 NSaved=11 IEnMin=11 EnMin= -165.367206527007     IErMin=11 ErrMin= 7.13D-07
 ErrMax= 7.13D-07  0.00D+00 EMaxC= 1.00D-01 BMatC= 1.74D-11 BMatP= 2.53D-10
 IDIUse=1 WtCom= 1.00D+00 WtEn= 0.00D+00
 Coeff-Com: -0.409D-04 0.642D-04 0.189D-03-0.231D-03-0.132D-02 0.110D-02
 Coeff-Com: -0.143D-02-0.214D-02 0.347D-01-0.287D+00 0.126D+01
 Coeff:     -0.409D-04 0.642D-04 0.189D-03-0.231D-03-0.132D-02 0.110D-02
 Coeff:     -0.143D-02-0.214D-02 0.347D-01-0.287D+00 0.126D+01
 Gap=     0.469 Goal=   None    Shift=    0.000
 RMSDP=1.67D-06 MaxDP=8.04D-06 DE=-9.24D-10 OVMax= 0.00D+00

 Cycle  12  Pass 1  IDiag  1:
 E= -165.367206527122     Delta-E=       -0.000000000115 Rises=F Damp=F
 DIIS: error= 4.86D-07 at cycle  12 NSaved=  12.
 NSaved=12 IEnMin=12 EnMin= -165.367206527122     IErMin=12 ErrMin= 4.86D-07
 ErrMax= 4.86D-07  0.00D+00 EMaxC= 1.00D-01 BMatC= 2.18D-12 BMatP= 1.74D-11
 IDIUse=1 WtCom= 1.00D+00 WtEn= 0.00D+00
 Coeff-Com:  0.264D-04-0.387D-04-0.194D-03 0.240D-03 0.920D-03-0.963D-03
 Coeff-Com:  0.209D-02-0.174D-02-0.139D-01 0.224D+00-0.121D+01 0.200D+01
 Coeff:      0.264D-04-0.387D-04-0.194D-03 0.240D-03 0.920D-03-0.963D-03
 Coeff:      0.209D-02-0.174D-02-0.139D-01 0.224D+00-0.121D+01 0.200D+01
 Gap=     0.469 Goal=   None    Shift=    0.000
 RMSDP=5.77D-07 MaxDP=3.02D-06 DE=-1.15D-10 OVMax= 0.00D+00

 Cycle  13  Pass 1  IDiag  1:
 E= -165.367206527149     Delta-E=       -0.000000000026 Rises=F Damp=F
 DIIS: error= 3.54D-07 at cycle  13 NSaved=  13.
 NSaved=13 IEnMin=13 EnMin= -165.367206527149     IErMin=13 ErrMin= 3.54D-07
 ErrMax= 3.54D-07  0.00D+00 EMaxC= 1.00D-01 BMatC= 1.12D-12 BMatP= 2.18D-12
 IDIUse=1 WtCom= 1.00D+00 WtEn= 0.00D+00
 Coeff-Com: -0.390D-05 0.669D-05 0.110D-05-0.552D-04-0.122D-03-0.519D-03
 Coeff-Com: -0.318D-03 0.145D-02 0.146D-03-0.148D+00 0.100D+01-0.351D+01
 Coeff-Com:  0.366D+01
 Coeff:     -0.390D-05 0.669D-05 0.110D-05-0.552D-04-0.122D-03-0.519D-03
 Coeff:     -0.318D-03 0.145D-02 0.146D-03-0.148D+00 0.100D+01-0.351D+01
 Coeff:      0.366D+01
 Gap=     0.469 Goal=   None    Shift=    0.000
 RMSDP=1.26D-06 MaxDP=6.64D-06 DE=-2.63D-11 OVMax= 0.00D+00

 Cycle  14  Pass 1  IDiag  1:
 E= -165.367206527177     Delta-E=       -0.000000000029 Rises=F Damp=F
 DIIS: error= 6.37D-08 at cycle  14 NSaved=  14.
 NSaved=14 IEnMin=14 EnMin= -165.367206527177     IErMin=14 ErrMin= 6.37D-08
 ErrMax= 6.37D-08  0.00D+00 EMaxC= 1.00D-01 BMatC= 8.09D-14 BMatP= 1.12D-12
 IDIUse=1 WtCom= 1.00D+00 WtEn= 0.00D+00
 Coeff-Com:  0.335D-05-0.555D-05-0.117D-04 0.297D-04 0.910D-04 0.110D-03
 Coeff-Com:  0.177D-03-0.406D-03-0.757D-03 0.543D-01-0.353D+00 0.136D+01
 Coeff-Com: -0.166D+01 0.160D+01
 Coeff:      0.335D-05-0.555D-05-0.117D-04 0.297D-04 0.910D-04 0.110D-03
 Coeff:      0.177D-03-0.406D-03-0.757D-03 0.543D-01-0.353D+00 0.136D+01
 Coeff:     -0.166D+01 0.160D+01
 Gap=     0.469 Goal=   None    Shift=    0.000
 RMSDP=2.61D-07 MaxDP=1.37D-06 DE=-2.88D-11 OVMax= 0.00D+00

 Cycle  15  Pass 1  IDiag  1:
 E= -165.367206527178     Delta-E=       -0.000000000001 Rises=F Damp=F
 DIIS: error= 1.47D-08 at cycle  15 NSaved=  15.
 NSaved=15 IEnMin=15 EnMin= -165.367206527178     IErMin=15 ErrMin= 1.47D-08
 ErrMax= 1.47D-08  0.00D+00 EMaxC= 1.00D-01 BMatC= 3.35D-15 BMatP= 8.09D-14
 IDIUse=1 WtCom= 1.00D+00 WtEn= 0.00D+00
 Coeff-Com: -0.418D-06 0.493D-06 0.802D-05-0.135D-04-0.946D-05-0.253D-05
 Coeff-Com: -0.134D-03 0.369D-03-0.106D-02-0.970D-02 0.795D-01-0.362D+00
 Coeff-Com:  0.499D+00-0.719D+00 0.151D+01
 Coeff:     -0.418D-06 0.493D-06 0.802D-05-0.135D-04-0.946D-05-0.253D-05
 Coeff:     -0.134D-03 0.369D-03-0.106D-02-0.970D-02 0.795D-01-0.362D+00
 Coeff:      0.499D+00-0.719D+00 0.151D+01
 Gap=     0.469 Goal=   None    Shift=    0.000
 RMSDP=2.12D-08 MaxDP=8.59D-08 DE=-6.54D-13 OVMax= 0.00D+00

 Cycle  16  Pass 1  IDiag  1:
 E= -165.367206527178     Delta-E=        0.000000000000 Rises=F Damp=F
 DIIS: error= 4.00D-09 at cycle  16 NSaved=  16.
 NSaved=16 IEnMin=16 EnMin= -165.367206527178     IErMin=16 ErrMin= 4.00D-09
 ErrMax= 4.00D-09  0.00D+00 EMaxC= 1.00D-01 BMatC= 2.10D-16 BMatP= 3.35D-15
 IDIUse=1 WtCom= 1.00D+00 WtEn= 0.00D+00
 Large coefficients: NSaved= 16 BigCof=    0.00 CofMax=   10.00 Det=-1.58D-16
 Inversion failed.  Reducing to 15 matrices.
 Coeff-Com: -0.594D-07 0.100D-05 0.570D-06-0.590D-05 0.174D-04-0.395D-05
 Coeff-Com: -0.215D-04 0.206D-03 0.982D-03-0.101D-01 0.620D-01-0.102D+00
 Coeff-Com:  0.209D+00-0.678D+00 0.152D+01
 Coeff:     -0.594D-07 0.100D-05 0.570D-06-0.590D-05 0.174D-04-0.395D-05
 Coeff:     -0.215D-04 0.206D-03 0.982D-03-0.101D-01 0.620D-01-0.102D+00
 Coeff:      0.209D+00-0.678D+00 0.152D+01
 Gap=     0.469 Goal=   None    Shift=    0.000
 RMSDP=3.71D-09 MaxDP=1.76D-08 DE=-2.84D-13 OVMax= 0.00D+00

 SCF Done:  E(RHF) =  -165.367206527     A.U. after   16 cycles
            NFock= 16  Conv=0.37D-08     -V/T= 2.0059
 KE= 1.643977196780D+02 PE=-5.078200720154D+02 EE= 1.188924465510D+02
 Leave Link  502 at Fri Apr 15 18:53:55 2022, MaxMem=   131072000 cpu:               0.0 elap:               0.1
 (Enter C:\G16W\l801.exe)
 Range of M.O.s used for correlation:     1    16
 NBasis=    16 NAE=    11 NBE=    11 NFC=     0 NFV=     0
 NROrb=     16 NOA=    11 NOB=    11 NVA=     5 NVB=     5
 Leave Link  801 at Fri Apr 15 18:53:55 2022, MaxMem=   131072000 cpu:               0.0 elap:               0.0
 (Enter C:\G16W\l1101.exe)
 Using compressed storage, NAtomX=     4.
 Will process      5 centers per pass.
 Leave Link 1101 at Fri Apr 15 18:53:55 2022, MaxMem=   131072000 cpu:               0.0 elap:               0.0
 (Enter C:\G16W\l1102.exe)
 Symmetrizing basis deriv contribution to polar:
 IMax=3 JMax=2 DiffMx= 0.00D+00
 Leave Link 1102 at Fri Apr 15 18:53:55 2022, MaxMem=   131072000 cpu:               0.0 elap:               0.0
 (Enter C:\G16W\l1110.exe)
 Forming Gx(P) for the SCF density, NAtomX=     4.
 Integral derivatives from FoFJK, PRISM(SPDF).
 Do as many integral derivatives as possible in FoFJK.
 G2DrvN: MDV=     131071592.
 G2DrvN: will do     5 centers at a time, making    1 passes.
 Calling FoFCou, ICntrl=  3107 FMM=F I1Cent=   0 AccDes= 0.00D+00.
 FoFJK:  IHMeth= 1 ICntrl=    3107 DoSepK=F KAlg= 0 I1Cent=           0 FoldK=F
 IRaf=         0 NMat=       1 IRICut=       1 DoRegI=T DoRafI=F ISym2E= 0 IDoP0=0 IntGTp=1.
 FoFCou: FMM=F IPFlag=           0 FMFlag=      100000 FMFlg1=           0
         NFxFlg=           0 DoJE=F BraDBF=F KetDBF=F FulRan=T
         wScrn=  0.000000 ICntrl=      3107 IOpCl=  0 I1Cent=           0 NGrid=           0
         NMat0=    1 NMatS0=      1 NMatT0=    0 NMatD0=    1 NMtDS0=    0 NMtDT0=    0
 Symmetry not used in FoFCou.
 End of G2Drv F.D. properties file   721 does not exist.
 End of G2Drv F.D. properties file   722 does not exist.
 End of G2Drv F.D. properties file   788 does not exist.
 Leave Link 1110 at Fri Apr 15 18:53:55 2022, MaxMem=   131072000 cpu:               0.0 elap:               0.1
 (Enter C:\G16W\l1002.exe)
 Minotr:  Closed shell wavefunction.
          IDoAtm=1111
          Direct CPHF calculation.
          Differentiating once with respect to electric field.
                with respect to dipole field.
          Differentiating once with respect to nuclear coordinates.
          Requested convergence is 1.0D-08 RMS, and 1.0D-07 maximum.
          Secondary convergence is 1.0D-12 RMS, and 1.0D-12 maximum.
          NewPWx=T KeepS1=F KeepF1=F KeepIn=T MapXYZ=F SortEE=F KeepMc=T.
 Keep R1 ints in memory in canonical form, NReq=814683.
 FoFCou: FMM=F IPFlag=           0 FMFlag=           0 FMFlg1=           0
         NFxFlg=           0 DoJE=F BraDBF=F KetDBF=F FulRan=T
         wScrn=  0.000000 ICntrl=       600 IOpCl=  0 I1Cent=           0 NGrid=           0
         NMat0=    1 NMatS0=    136 NMatT0=    0 NMatD0=    1 NMtDS0=    0 NMtDT0=    0
 Symmetry not used in FoFCou.
 Two-electron integral symmetry not used.
          MDV=     131072000 using IRadAn=       1.
          Solving linear equations simultaneously, MaxMat=       0.
          There are    15 degrees of freedom in the 1st order CPHF.  IDoFFX=6 NUNeed=     3.
     12 vectors produced by pass  0 Test12= 3.67D-16 6.67D-09 XBig12= 8.36D+00 1.98D+00.
 AX will form    12 AO Fock derivatives at one time.
     12 vectors produced by pass  1 Test12= 3.67D-16 6.67D-09 XBig12= 3.42D-01 2.42D-01.
     12 vectors produced by pass  2 Test12= 3.67D-16 6.67D-09 XBig12= 1.37D-03 1.79D-02.
     12 vectors produced by pass  3 Test12= 3.67D-16 6.67D-09 XBig12= 1.67D-06 5.71D-04.
      7 vectors produced by pass  4 Test12= 3.67D-16 6.67D-09 XBig12= 9.89D-10 1.77D-05.
 InvSVY:  IOpt=1 It=  1 EMax= 9.99D-16
 Solved reduced A of dimension    55 with    12 vectors.
 FullF1:  Do perturbations      1 to       3.
 Isotropic polarizability for W=    0.000000       10.66 Bohr**3.
 End of Minotr F.D. properties file   721 does not exist.
 End of Minotr F.D. properties file   722 does not exist.
 End of Minotr F.D. properties file   788 does not exist.
 Leave Link 1002 at Fri Apr 15 18:53:56 2022, MaxMem=   131072000 cpu:               0.0 elap:               0.0
 (Enter C:\G16W\l601.exe)
 Copying SCF densities to generalized density rwf, IOpCl= 0 IROHF=0.

 **********************************************************************

            Population analysis using the SCF density.

 **********************************************************************

 Orbital symmetries:
       Occupied  (A) (A) (A) (A) (A) (A) (A) (A) (A) (A) (A)
       Virtual   (A) (A) (A) (A) (A)
 The electronic state is 1-A.
 Alpha  occ. eigenvalues --  -20.48224 -15.28320 -11.21779  -1.54820  -1.04554
 Alpha  occ. eigenvalues --   -0.72022  -0.64971  -0.64479  -0.53705  -0.38517
 Alpha  occ. eigenvalues --   -0.30483
 Alpha virt. eigenvalues --    0.16383   0.31787   0.65120   0.73027   1.15562
          Condensed to atoms (all electrons):
               1          2          3          4
     1  H    0.626715   0.286829  -0.029789   0.002041
     2  N    0.286829   6.814583   0.231687  -0.040543
     3  C   -0.029789   0.231687   4.878685   0.566944
     4  O    0.002041  -0.040543   0.566944   7.645680
 Mulliken charges:
               1
     1  H    0.114205
     2  N   -0.292556
     3  C    0.352473
     4  O   -0.174122
 Sum of Mulliken charges =   0.00000
 Mulliken charges with hydrogens summed into heavy atoms:
               1
     2  N   -0.178351
     3  C    0.352473
     4  O   -0.174122
 APT charges:
               1
     1  H    0.123553
     2  N   -0.200532
     3  C    0.296595
     4  O   -0.219617
 Sum of APT charges =   0.00000
 APT charges with hydrogens summed into heavy atoms:
               1
     2  N   -0.076979
     3  C    0.296595
     4  O   -0.219617
 Electronic spatial extent (au):  <R**2>=            117.1293
 Charge=              0.0000 electrons
 Dipole moment (field-independent basis, Debye):
    X=              0.5277    Y=              1.8980    Z=              0.0039  Tot=              1.9700
 Quadrupole moment (field-independent basis, Debye-Ang):
   XX=            -15.3889   YY=            -14.5959   ZZ=            -14.9662
   XY=             -0.4860   XZ=             -0.0112   YZ=              0.0016
 Traceless Quadrupole moment (field-independent basis, Debye-Ang):
   XX=             -0.4052   YY=              0.3878   ZZ=              0.0175
   XY=             -0.4860   XZ=             -0.0112   YZ=              0.0016
 Octapole moment (field-independent basis, Debye-Ang**2):
  XXX=             -0.5256  YYY=             -0.9002  ZZZ=              0.0038  XYY=              1.4928
  XXY=              2.2091  XXZ=              0.0163  XZZ=              2.3687  YZZ=             -0.0930
  YYZ=              0.0029  XYZ=             -0.0009
 Hexadecapole moment (field-independent basis, Debye-Ang**3):
 XXXX=            -87.0356 YYYY=            -18.1311 ZZZZ=             -9.5748 XXXY=             -2.0857
 XXXZ=             -0.0290 YYYX=             -0.7301 YYYZ=              0.0014 ZZZX=             -0.0012
 ZZZY=             -0.0001 XXYY=            -17.3448 XXZZ=            -17.6627 YYZZ=             -4.6413
 XXYZ=              0.0034 YYXZ=             -0.0031 ZZXY=             -0.3522
 N-N= 5.916269925921D+01 E-N=-5.078200720344D+02  KE= 1.643977196780D+02
  Exact polarizability:  19.826   1.009   8.812  -0.024   0.001   3.348
 Approx polarizability:  22.509   1.069  10.775  -0.009   0.000   2.026
 No NMR shielding tensors so no spin-rotation constants.
 Leave Link  601 at Fri Apr 15 18:53:56 2022, MaxMem=   131072000 cpu:               0.0 elap:               0.0
 (Enter C:\G16W\l701.exe)
 SCFChk:  SCF convergence  3.71D-09 required  1.00D-08
 ... and contract with generalized density number  0.
 Compute integral second derivatives.
 Entering OneElI...
 Calculate overlap and kinetic energy integrals
    NBasis =  16  MinDer = 2  MaxDer = 2
 Requested accuracy = 0.1000D-12
 PrmmSu-InSpLW:  IPartL=    0 NPrtUS=    1 NPrtUL=    1 DoSpLW=F IThBeg=    0 IThEnd=    0 NThAct=    1.
 PrsmSu:  NPrtUS=   1 ThrOK=F IAlg=1 NPAlg=1 LenDen=           0 ISkipM=0 DoSpLW=F IThBeg=    0 IThEnd=    0.
 Prism:   IPart=     0 DynPar=F LinDyn=F Incr=           1.
 PRISM was handed   131065491 working-precision words and    28 shell-pairs
 IPart=  0 NShTot=          28 NBatch=           7 AvBLen=         4.0
 PrSmSu:  NxtVal=              2.
 Entering OneElI...
 Calculate potential energy integrals
    NBasis =  16  MinDer = 2  MaxDer = 2
 Requested accuracy = 0.1000D-12
 PrmmSu-InSpLW:  IPartL=    0 NPrtUS=    1 NPrtUL=    1 DoSpLW=F IThBeg=    0 IThEnd=    0 NThAct=    1.
 PrsmSu:  NPrtUS=   1 ThrOK=F IAlg=1 NPAlg=1 LenDen=           0 ISkipM=0 DoSpLW=F IThBeg=    0 IThEnd=    0.
 Prism:   IPart=     0 DynPar=F LinDyn=F Incr=           1.
 PRISM was handed   131065811 working-precision words and    27 shell-pairs
 IPart=  0 NShTot=         108 NBatch=          27 AvBLen=         4.0
 PrSmSu:  NxtVal=              2.
 Polarizability after L701:
                1             2             3 
      1  0.198260D+02
      2  0.100867D+01  0.881189D+01
      3 -0.235732D-01  0.588674D-03  0.334786D+01
 Dipole Derivatives after L701:
                 1             2             3             4             5 
      1   0.174021D+00  0.263249D+00  0.271934D-03 -0.273638D+00 -0.369291D+00
      2   0.147997D+00 -0.653346D-01 -0.130118D-02  0.238088D+00  0.184539D+00
      3   0.862971D-03 -0.949115D-03  0.261973D+00 -0.136109D-02  0.872507D-03
                 6             7             8             9            10 
      1  -0.576408D-03  0.724529D+00 -0.158324D+00  0.158770D-02 -0.624913D+00
      2   0.135763D-02 -0.506663D+00 -0.121970D+00  0.387185D-04  0.120577D+00
      3  -0.512497D+00 -0.201339D-03  0.291659D-03  0.287227D+00  0.699454D-03
                11            12 
      1   0.264366D+00 -0.128323D-02
      2   0.276624D-02 -0.951749D-04
      3  -0.215051D-03 -0.367038D-01
 Hessian after L701:
                1             2             3             4             5 
      1  0.187813D+01
      2  0.826925D+00  0.160394D+01
      3  0.378916D-02 -0.462121D-02  0.248562D+01
      4 -0.190233D+01 -0.674231D+00 -0.331634D-02  0.586334D+00
      5 -0.844663D+00 -0.162737D+01  0.462314D-02 -0.234756D+01  0.430667D+01
      6 -0.403372D-02  0.434094D-02 -0.246015D+01  0.460439D-02 -0.517262D-02
      7 -0.120561D+00 -0.597609D-01  0.652357D-04  0.912131D+00  0.305622D+01
      8  0.101177D+00  0.290390D-01 -0.162226D-03  0.317248D+01 -0.210830D+01
      9  0.485623D-03  0.248573D-03  0.140455D-01 -0.215126D-02  0.539975D-03
     10  0.144754D+00 -0.929326D-01 -0.538063D-03  0.403861D+00  0.136002D+00
     11 -0.834385D-01 -0.560603D-02  0.160294D-03 -0.150689D+00 -0.570997D+00
     12 -0.241063D-03  0.316931D-04 -0.395178D-01  0.863208D-03  0.950049D-05
                6             7             8             9            10 
      6  0.720120D+01
      7 -0.140191D-02  0.509430D+01
      8  0.107219D-02  0.287224D+01  0.123406D+02
      9 -0.431312D+01 -0.833144D-02  0.936183D-02  0.183629D+02
     10  0.831243D-03 -0.588587D+01 -0.614589D+01  0.999708D-02  0.533725D+01
     11 -0.240517D-03 -0.586870D+01 -0.102613D+02 -0.101504D-01  0.610283D+01
     12 -0.427927D+00  0.966811D-02 -0.102718D-01 -0.140639D+02 -0.102903D-01
               11            12 
     11  0.108379D+02
     12  0.102306D-01  0.145313D+02
 Leave Link  701 at Fri Apr 15 18:53:56 2022, MaxMem=   131072000 cpu:               0.0 elap:               0.1
 (Enter C:\G16W\l702.exe)
 L702 exits ... SP integral derivatives will be done elsewhere.
 Leave Link  702 at Fri Apr 15 18:53:56 2022, MaxMem=   131072000 cpu:               0.0 elap:               0.0
 (Enter C:\G16W\l703.exe)
 Integral derivatives from FoFJK, PRISM(SPDF).
 Compute integral second derivatives, UseDBF=F ICtDFT=           0.
 ICntrl=    100127.
 Calling FoFJK, ICntrl=    100127 FMM=F ISym2X=0 I1Cent= 0 IOpClX= 0 NMat=1 NMatS=1 NMatT=0.
 FoFJK:  IHMeth= 1 ICntrl=  100127 DoSepK=F KAlg= 0 I1Cent=           0 FoldK=F
 IRaf=         0 NMat=       1 IRICut=       1 DoRegI=T DoRafI=F ISym2E= 0 IDoP0=0 IntGTp=1.
 FoFCou: FMM=F IPFlag=           0 FMFlag=      100000 FMFlg1=         800
         NFxFlg=           0 DoJE=F BraDBF=F KetDBF=F FulRan=T
         wScrn=  0.000000 ICntrl=    100127 IOpCl=  0 I1Cent=           0 NGrid=           0
         NMat0=    1 NMatS0=      1 NMatT0=    0 NMatD0=    1 NMtDS0=    0 NMtDT0=    0
 Symmetry not used in FoFCou.
 FoFCou:  KetSym=F NOpSet=  1 NOpAb=1 NOp=  1.
 FoFCou:  CnvScl= 1.00D+00 Thresh= 1.00D-12 IAcrcy=      10.
 PrismS was handed   131066136 working-precision words and    28 shell-pairs
 FoFCou: LinMIO=F DoNuc=F BraDBF=F KetDBF=F HaveP=T PDBF=F HaveZ=T HaveW=F
         NIJTC =       3 NIJTAt=       0 NIJTCD=       0 NIJTT =       3
         IJTBeg=       1 IJTEnd=       3 KLTBeg=       1 KLTEnd=       3
         IPTBeg=       1 IPTEnd=       3 IPTBCv=       1 IPTECv=       3
         IZTBeg=       1 IZTEnd=       3 IZTBCv=       1 IZTECv=       3
         IWTBeg=       4 IWTEnd=       3 IWTBCv=       4 IWTECv=       3
         INTBeg=       1 INTEnd=       0 IFTBCv=       1 IFTECv=       3
 NCel replicated for PrismC:     1
 CoulSu-InSpLW:  IPartL=    0 NPrtUS=    1 NPrtUL=    1 DoSpLW=F IThBeg=    0 IThEnd=    0 NThAct=    1.
 CoulSu:  IncDef=  1024 NBBP=            406 NTPThr=   100 NPartT=    1 Incr=           4 LDynOK=F GPUOK=T.
 CoulSu:  NPrtUS=   1 ThrOK=F IAlg=1 NPAlg=1 LenDen=           0 LWGrdD=           0 DoCopy=F ISkipM=0
          DoSpLW=F IThBeg=    0 IThEnd=    0.
 Enter PrismC:  IPart=  0 JobTyp=22 DoJE=F Cont=F.
 PrismC:  IPart=     0 DynPar=F LinDyn=F Incr=           4 UseFst=F UseS4=T ISplat=2.
 PrismC was handed   131066046 working-precision words and    28 shell-pairs
 IPart=  0 NShTot=         376 NShNF=         376 NShFF=           0 MinMC=      10
           NShCPU=         376 NBCPU=          43 AvBCPU=         8.7
           NShGPU=           0 NBGPU=           0 AvBGPU=         0.0
 CoulSu:  NxtVal=              5 LenVP=      131066047 MinMC=      10.
 Polarizability after L703:
                1             2             3 
      1  0.198260D+02
      2  0.100867D+01  0.881189D+01
      3 -0.235732D-01  0.588674D-03  0.334786D+01
 Dipole Derivatives after L703:
                 1             2             3             4             5 
      1   0.174021D+00  0.263249D+00  0.271934D-03 -0.273638D+00 -0.369291D+00
      2   0.147997D+00 -0.653346D-01 -0.130118D-02  0.238088D+00  0.184539D+00
      3   0.862971D-03 -0.949115D-03  0.261973D+00 -0.136109D-02  0.872507D-03
                 6             7             8             9            10 
      1  -0.576408D-03  0.724529D+00 -0.158324D+00  0.158770D-02 -0.624913D+00
      2   0.135763D-02 -0.506663D+00 -0.121970D+00  0.387185D-04  0.120577D+00
      3  -0.512497D+00 -0.201339D-03  0.291659D-03  0.287227D+00  0.699454D-03
                11            12 
      1   0.264366D+00 -0.128323D-02
      2   0.276624D-02 -0.951749D-04
      3  -0.215051D-03 -0.367038D-01
 Hessian after L703:
                1             2             3             4             5 
      1  0.287287D+00
      2 -0.223746D+00  0.299293D+00
      3 -0.114548D-02  0.117143D-02  0.870402D-02
      4 -0.255418D+00  0.267589D+00  0.133326D-02  0.468212D+00
      5  0.188510D+00 -0.307830D+00 -0.109800D-02 -0.296264D+00  0.297575D+00
      6  0.101888D-02 -0.126223D-02 -0.108434D-01 -0.119499D-02  0.131265D-02
      7 -0.309951D-01 -0.446312D-01 -0.673740D-04  0.171174D-01  0.160139D+00
      8  0.431038D-01  0.790380D-02 -0.554357D-04  0.454232D-01 -0.215120D-01
      9  0.128295D-03  0.155666D-03 -0.491261D-02 -0.191534D-03 -0.296233D-03
     10 -0.873990D-03  0.787630D-03 -0.120404D-03 -0.229911D+00 -0.523845D-01
     11 -0.786796D-02  0.632878D-03 -0.179952D-04 -0.167485D-01  0.317669D-01
     12 -0.170208D-05 -0.648660D-04  0.705204D-02  0.532697D-04  0.815858D-04
                6             7             8             9            10 
      6  0.282563D-01
      7  0.107587D-03  0.165507D+01
      8 -0.939324D-04 -0.143394D+01  0.748088D+00
      9 -0.458916D-01  0.231905D-02 -0.148880D-02 -0.102548D+00
     10  0.685204D-04 -0.164119D+01  0.134541D+01 -0.225581D-02  0.187198D+01
     11  0.435158D-04  0.131843D+01 -0.734479D+00  0.162936D-02 -0.129382D+01
     12  0.284787D-01 -0.235927D-02  0.163816D-02  0.153352D+00  0.230770D-02
               11            12 
     11  0.702080D+00
     12 -0.165488D-02 -0.188883D+00
 Leave Link  703 at Fri Apr 15 18:53:56 2022, MaxMem=   131072000 cpu:               0.0 elap:               0.1
 (Enter C:\G16W\l716.exe)
 FrcOut:
 IF    =        41 IFX   =        53 IFXYZ =        65
 IFFX  =        77 IFFFX =       155 IFLen =        12
 IFFLen=        78 IFFFLn=         0 IEDerv=       155
 LEDerv=       629 IFroze=       954 ICStrt=      1551
 Dipole        = 2.07608308D-01 7.46717280D-01 1.52082443D-03
 DipoleDeriv   = 1.74021321D-01 1.47997363D-01 8.62970517D-04
                 2.63249013D-01-6.53346237D-02-9.49115042D-04
                 2.71933918D-04-1.30117531D-03 2.61973404D-01
                -2.73637956D-01 2.38088192D-01-1.36108571D-03
                -3.69291480D-01 1.84538814D-01 8.72507175D-04
                -5.76408169D-04 1.35763178D-03-5.12496502D-01
                 7.24529484D-01-5.06662765D-01-2.01339170D-04
                -1.58323901D-01-1.21970429D-01 2.91659064D-04
                 1.58770353D-03 3.87184620D-05 2.87226874D-01
                -6.24912849D-01 1.20577210D-01 6.99454364D-04
                 2.64366368D-01 2.76623812D-03-2.15051198D-04
                -1.28322928D-03-9.51749272D-05-3.67037757D-02
 Polarizability= 1.98260173D+01 1.00867219D+00 8.81189226D+00
                -2.35731805D-02 5.88674364D-04 3.34785512D+00
 HyperPolar    = 2.22329967D+01 2.69043438D+01 5.70503909D+00
                 5.35940993D+00-2.39067387D-01-8.99768945D-02
                -6.20479372D-03 2.11432522D+01 5.70699921D+00
                 2.11039499D-02
 Quadrupole    =-3.01279228D-01 2.88291628D-01 1.29875998D-02
                -3.61325553D-01-8.35997470D-03 1.22278615D-03
 VibFq2-Diag1:  N=     12 IV=           5 MDV=   131069605 NE2=    10922466
 Full mass-weighted force constant matrix:
 Low frequencies --- -989.7823 -765.7431 -286.7457   -0.0006   -0.0005   -0.0004
 Low frequencies ---  267.7232  508.1281  789.7896
 OrtVCM:  Ph=1 IPass= 1 DotMx1= 0.00D+00
 OrtVCM:  IS=    1 I=    1 IndO=    1 Dot= 1.00D+00 DotN= 1.00D+00 ElMax1= 6.10D-01 ElMax1N= 6.10D-01
 OrtVCM:  Ph=2 NNew=    0 IAdd=    2 IPass= 1 DotMx2= 0.00D+00
 OrtVCM:  IS=    1 I=    2 IndO=    2 Dot= 1.00D+00 DotN= 1.00D+00 ElMax1= 6.10D-01 ElMax1N= 6.10D-01
 OrtVCM:  Ph=2 NNew=    0 IAdd=    3 IPass= 1 DotMx2= 0.00D+00
 OrtVCM:  IS=    1 I=    3 IndO=    3 Dot= 1.00D+00 DotN= 1.00D+00 ElMax1= 6.10D-01 ElMax1N= 6.10D-01
 OrtVCM:  Ph=2 NNew=    0 IAdd=    4 IPass= 1 DotMx2= 8.33D-17
 OrtVCM:  IS=    1 I=    4 IndO=    4 Dot= 1.00D+00 DotN= 1.00D+00 ElMax1= 7.77D-01 ElMax1N= 7.77D-01
 OrtVCM:  Ph=2 NNew=    0 IAdd=    5 IPass= 1 DotMx2= 2.78D-16
 OrtVCM:  IS=    1 I=    5 IndO=    5 Dot= 1.00D+00 DotN= 1.00D+00 ElMax1= 6.96D-01 ElMax1N= 6.96D-01
 OrtVCM:  Ph=2 NNew=    0 IAdd=    6 IPass= 1 DotMx2= 5.55D-17
 OrtVCM:  IS=    1 I=    6 IndO=    6 Dot= 1.00D+00 DotN= 1.00D+00 ElMax1= 6.61D-01 ElMax1N= 6.61D-01
 OrtVCM:  Ph=1 IPass= 1 DotMx1= 6.96D-01
 OrtVCM:  Ph=1 IPass= 2 DotMx1= 3.30D-16
 OrtVCM:  IS=    1 I=    1 IndO=    7 Dot= 9.70D-01 DotN= 9.70D-01 ElMax1= 9.70D-01 ElMax1N= 9.70D-01
 OrtVCM:  Ph=2 NNew=    0 IAdd=    2 IPass= 1 DotMx2= 2.42D-02
 OrtVCM:  Ph=2 NNew=    0 IAdd=    2 IPass= 2 DotMx2= 6.57D-19
 OrtVCM:  IS=    1 I=    2 IndO=    8 Dot= 8.94D-01 DotN= 8.94D-01 ElMax1= 8.94D-01 ElMax1N= 8.94D-01
 OrtVCM:  Ph=2 NNew=    0 IAdd=    3 IPass= 1 DotMx2= 5.74D-04
 OrtVCM:  Ph=2 NNew=    0 IAdd=    3 IPass= 2 DotMx2= 8.13D-20
 OrtVCM:  IS=    1 I=    3 IndO=    9 Dot= 7.93D-01 DotN= 7.93D-01 ElMax1= 7.93D-01 ElMax1N= 7.93D-01
 OrtVCM:  Ph=2 NNew=    0 IAdd=    4 IPass= 1 DotMx2= 7.74D-02
 OrtVCM:  Ph=2 NNew=    0 IAdd=    4 IPass= 2 DotMx2= 1.13D-17
 OrtVCM:  IS=    1 I=    4 IndO=   10 Dot= 6.49D-01 DotN= 6.49D-01 ElMax1= 6.49D-01 ElMax1N= 6.49D-01
 OrtVCM:  Ph=2 NNew=    0 IAdd=    5 IPass= 1 DotMx2= 2.94D-01
 OrtVCM:  Ph=2 NNew=    0 IAdd=    5 IPass= 2 DotMx2= 1.74D-16
 OrtVCM:  IS=    1 I=    5 IndO=   11 Dot= 1.34D-01 DotN= 1.34D-01 ElMax1= 2.65D-01 ElMax1N= 2.65D-01
 OrtVCM:  Ph=2 NNew=    0 IAdd=    6 IPass= 1 DotMx2= 1.95D-01
 OrtVCM:  Ph=2 NNew=    0 IAdd=    6 IPass= 2 DotMx2= 1.83D-17
 OrtVCM:  IS=    1 I=    6 IndO=    0 Dot= 1.17D-33 DotN= 1.17D-33 ElMax1= 2.72D-17 ElMax1N= 2.72D-17
 SchOr2:  IPass= 1 Test2A= 1.00D-01 IOff=     0 NDo=     6 NNew=     5
 OrtVCM:  Ph=1 IPass= 1 DotMx1= 5.28D-01
 OrtVCM:  Ph=1 IPass= 2 DotMx1= 1.35D-16
 OrtVCM:  IS=    1 I=    1 IndO=   12 Dot= 3.88D-01 DotN= 3.88D-01 ElMax1= 3.88D-01 ElMax1N= 3.88D-01
 SchOr2:  IPass= 1 Test2A= 1.00D-01 IOff=     6 NDo=     1 NNew=     1
 VibFq2-Diag2:  N=      6 IV=           5 MDV=   131069605 NE2=    21844933
 ******    1 imaginary frequencies (negative Signs) ****** 
 Dipole derivative wrt mode   1:  3.14406D+00 -4.10795D+00 -3.16254D-03
 Vibrational polarizability contributions from mode   1       0.2983170       0.5092680       0.0000003
 Dipole derivative wrt mode   2:  9.37677D-03 -3.17542D-02  7.16510D+00
 Vibrational polarizability contributions from mode   2       0.0000164       0.0001883       9.5868315
 Dipole derivative wrt mode   3: -3.37681D+00  2.64135D+00  1.06125D-02
 Vibrational polarizability contributions from mode   3       0.5115995       0.3130172       0.0000051
 Dipole derivative wrt mode   4:  9.96682D+00  1.93901D+00  3.06442D-03
 Vibrational polarizability contributions from mode   4       1.3219112       0.0500322       0.0000001
 Dipole derivative wrt mode   5:  7.39454D+00 -2.79157D+00 -3.63135D-03
 Vibrational polarizability contributions from mode   5       0.1435921       0.0204646       0.0000000
 Dipole derivative wrt mode   6:  2.22497D+00 -4.34824D+00 -1.29254D-02
 Vibrational polarizability contributions from mode   6       0.0091646       0.0350020       0.0000003
 Diagonal vibrational polarizability:
        2.2846009       0.9279723       9.5868373
 NorSel:  MapVib=      1      2      3      4      5      6
 Harmonic frequencies (cm**-1), IR intensities (KM/Mole), Raman scattering
 activities (A**4/AMU), depolarization ratios for plane and unpolarized
 incident light, reduced masses (AMU), force constants (mDyne/A),
 and normal coordinates:
                      1                      2                      3
                      A                      A                      A
 Frequencies --   -944.3183               379.6219               774.4759
 Red. masses --     11.2864                 1.2462                 9.9618
 Frc consts  --      5.9298                 0.1058                 3.5205
 IR Inten    --     26.7604                51.3397                18.3797
  Atom  AN      X      Y      Z        X      Y      Z        X      Y      Z
     1   1    -0.19  -0.29   0.00     0.00   0.00   0.99     0.02  -0.57   0.01
     2   7    -0.15  -0.31   0.00     0.00   0.00  -0.06     0.65   0.09   0.00
     3   6     0.46   0.68   0.00     0.00   0.00  -0.11    -0.24   0.13   0.00
     4   8    -0.20  -0.22   0.00     0.00   0.00   0.07    -0.39  -0.14   0.00
                      4                      5                      6
                      A                      A                      A
 Frequencies --   1422.0741              3201.1958              3812.7139
 Red. masses --      1.1267                13.0317                 1.0762
 Frc consts  --      1.3424                78.6822                 9.2173
 IR Inten    --    103.0974                62.4720                23.8579
  Atom  AN      X      Y      Z        X      Y      Z        X      Y      Z
     1   1     0.76   0.64   0.00    -0.12  -0.14   0.00    -0.69   0.72   0.00
     2   7     0.01  -0.08   0.00     0.02   0.03   0.00     0.05  -0.05   0.00
     3   6    -0.02   0.01   0.00     0.64  -0.46   0.00     0.00   0.00   0.00
     4   8    -0.04   0.02   0.00    -0.49   0.33   0.00     0.00   0.00   0.00

 -------------------
 - Thermochemistry -
 -------------------
 Temperature   298.150 Kelvin.  Pressure   1.00000 Atm.
 Atom     1 has atomic number  1 and mass   1.00783
 Atom     2 has atomic number  7 and mass  14.00307
 Atom     3 has atomic number  6 and mass  12.00000
 Atom     4 has atomic number  8 and mass  15.99491
 Molecular mass:    43.00581 amu.
 Principal axes and moments of inertia in atomic units:
                           1         2         3
     Eigenvalues --    13.45082 140.76663 154.21732
           X            0.99961  -0.02783  -0.00016
           Y            0.02783   0.99961   0.00049
           Z            0.00015  -0.00049   1.00000
 This molecule is an asymmetric top.
 Rotational symmetry number  1.
 Rotational temperatures (Kelvin)      6.43930     0.61530     0.56164
 Rotational constants (GHZ):         134.17330    12.82080    11.70258
    1 imaginary frequencies ignored.
 Zero-point vibrational energy      57361.4 (Joules/Mol)
                                   13.70971 (Kcal/Mol)
 Warning -- explicit consideration of   1 degrees of freedom as
           vibrations may cause significant error
 Vibrational temperatures:    546.19  1114.30  2046.05  4605.81  5485.64
          (Kelvin)
 
 Zero-point correction=                           0.021848 (Hartree/Particle)
 Thermal correction to Energy=                    0.025103
 Thermal correction to Enthalpy=                  0.026047
 Thermal correction to Gibbs Free Energy=        -0.001889
 Sum of electronic and zero-point Energies=           -165.345359
 Sum of electronic and thermal Energies=              -165.342104
 Sum of electronic and thermal Enthalpies=            -165.341159
 Sum of electronic and thermal Free Energies=         -165.369095
 
                     E (Thermal)             CV                S
                      KCal/Mol        Cal/Mol-Kelvin    Cal/Mol-Kelvin
 Total                   15.752              8.267             58.796
 Electronic               0.000              0.000              0.000
 Translational            0.889              2.981             37.203
 Rotational               0.889              2.981             20.307
 Vibrational             13.975              2.306              1.286
 Vibration     1          0.750              1.514              1.041
                       Q            Log10(Q)             Ln(Q)
 Total Bot       0.739079D+01          0.868691          2.000235
 Total V=0       0.827901D+11         10.917979         25.139575
 Vib (Bot)       0.108996D-09         -9.962590        -22.939712
 Vib (Bot)    1  0.476403D+00         -0.322025         -0.741490
 Vib (V=0)       0.122095D+01          0.086698          0.199629
 Vib (V=0)    1  0.119062D+01          0.075774          0.174477
 Electronic      0.100000D+01          0.000000          0.000000
 Translational   0.110852D+08          7.044745         16.221124
 Rotational      0.611697D+04          3.786536          8.718822
 Write normal modes, IRwNMS=   765 IRotNM=-1 NVibU=     6.
 
                                                                  T1
                                                             IR Spectrum
 
     3                    3                                                          1                                               
     8                    2                                                          4                     7            3            
     1                    0                                                          2                     7            8            
     3                    1                                                          2                     4            0            
 
     X                    X                                                          X                     X            X            
     X                    X                                                          X                     X            X            
     X                    X                                                          X                     X            X            
     X                    X                                                          X                     X            X            
     X                    X                                                          X                                  X            
                          X                                                          X                                  X            
                          X                                                          X                                  X            
                          X                                                          X                                  X            
                          X                                                          X                                  X            
                          X                                                          X                                  X            
                          X                                                          X                                               
                          X                                                          X                                               
                                                                                     X                                               
                                                                                     X                                               
                                                                                     X                                               
                                                                                     X                                               
                                                                                     X                                               
                                                                                     X                                               
                                                                                     X                                               
                                                                                     X                                               
 
 Forces in standard orientation:
 -------------------------------------------------------------------
 Center     Atomic                   Forces (Hartrees/Bohr)
 Number     Number              X              Y              Z
 -------------------------------------------------------------------
      1        1           0.005188846    0.007564628    0.000071287
      2        7           0.018311884   -0.070364342   -0.000002681
      3        6           0.384982861   -0.115894497    0.000257747
      4        8          -0.408483592    0.178694212   -0.000326353
 -------------------------------------------------------------------
 Cartesian Forces:  Max     0.408483592 RMS     0.174595866
 ***** Axes restored to original set *****
 Rotating derivatives, DoTrsp=F IDiff=-2 LEDeriv=    628 LFDPrp=       0 LDFDPr=       0.
 -------------------------------------------------------------------
 Center     Atomic                   Forces (Hartrees/Bohr)
 Number     Number              X              Y              Z
 -------------------------------------------------------------------
      1        1          -0.008934731   -0.000058169    0.002078458
      2        7           0.033989351   -0.000234894   -0.064273903
      3        6          -0.205795637   -0.001264906   -0.345383787
      4        8           0.180741017    0.001557970    0.407579232
 -------------------------------------------------------------------
 Cartesian Forces:  Max     0.407579232 RMS     0.174595866
 From PutF, contents of force:
   1   -0.2078458211D-02
   2   -0.7817251902D-02
   3    0.4378690230D+00
   4    0.1783724203D-01
   5    0.1678087906D+00
   6    0.1120414546D-03
 -----------------------------------------------------------------------------------------------
                       Internal Coordinate Forces (Hartree/Bohr or radian)
  Cent   Atom   N1       Length/X         N2         Alpha/Y        N3         Beta/Z          J
 -----------------------------------------------------------------------------------------------
      1  H 
      2  N        1  -0.002078(     1)
      3  C        2  -0.007817(     2)      1   0.017837(     4)
      4  O        3   0.437869(     3)      2   0.167809(     5)      1   0.000112(     6)     0
 -----------------------------------------------------------------------------------------------
 Internal  Forces:  Max     0.437869023 RMS     0.191604054
 Force constants in Cartesian coordinates: 
                1             2             3             4             5 
      1  0.698926D-01
      2 -0.506748D-04  0.869878D-02
      3  0.138476D-01  0.442010D-04  0.516693D+00
      4 -0.521491D-01  0.159072D-03 -0.336458D-01  0.953556D-01
      5  0.795636D-04 -0.108381D-01 -0.232029D-04  0.328269D-03  0.282511D-01
      6  0.454344D-01  0.129865D-04 -0.511104D+00  0.111235D+00  0.285807D-03
      7 -0.140299D-01  0.000000D+00  0.245624D-01  0.101891D+00 -0.243797D-03
      8 -0.426908D-05 -0.491276D-02 -0.590929D-04 -0.219107D-03 -0.458912D-01
      9 -0.631731D-01  0.254323D-04 -0.906126D-02  0.674894D-01 -0.105971D-03
     10 -0.371366D-02 -0.109372D-03 -0.476417D-02 -0.145097D+00 -0.164035D-03
     11 -0.246198D-04  0.705203D-02  0.380949D-04 -0.268234D-03  0.284781D-01
     12  0.389110D-02 -0.826198D-04  0.347256D-02 -0.145079D+00 -0.156633D-03
                6             7             8             9            10 
      6  0.670436D+00
      7 -0.472266D-01 -0.186533D+00
      8 -0.790561D-04  0.269119D-02 -0.102504D+00
      9 -0.106286D+00  0.578775D+00  0.112258D-01  0.258965D+01
     10 -0.109443D+00  0.986726D-01 -0.246781D-02 -0.583092D+00  0.501382D-01
     11 -0.219737D-03 -0.244836D-02  0.153308D+00 -0.111453D-01  0.274122D-02
     12 -0.530466D-01 -0.556111D+00 -0.110877D-01 -0.247430D+01  0.697299D+00
               11            12 
     11 -0.188838D+00
     12  0.113269D-01  0.252387D+01
 FCInt: Cartesian first derivatives: 
                 1             2             3             4 
      1  -0.893473D-02  0.339894D-01 -0.205796D+00  0.180741D+00
      2  -0.581693D-04 -0.234894D-03 -0.126491D-02  0.155797D-02
      3   0.207846D-02 -0.642739D-01 -0.345384D+00  0.407579D+00
 FCInt: Cartesian force constants: 
                1             2             3             4             5 
      1  0.698926D-01
      2 -0.506748D-04  0.869878D-02
      3  0.138476D-01  0.442010D-04  0.516693D+00
      4 -0.521491D-01  0.159072D-03 -0.336458D-01  0.953556D-01
      5  0.795636D-04 -0.108381D-01 -0.232029D-04  0.328269D-03  0.282511D-01
      6  0.454344D-01  0.129865D-04 -0.511104D+00  0.111235D+00  0.285807D-03
      7 -0.140299D-01  0.000000D+00  0.245624D-01  0.101891D+00 -0.243797D-03
      8 -0.426908D-05 -0.491276D-02 -0.590929D-04 -0.219107D-03 -0.458912D-01
      9 -0.631731D-01  0.254323D-04 -0.906126D-02  0.674894D-01 -0.105971D-03
     10 -0.371366D-02 -0.109372D-03 -0.476417D-02 -0.145097D+00 -0.164035D-03
     11 -0.246198D-04  0.705203D-02  0.380949D-04 -0.268234D-03  0.284781D-01
     12  0.389110D-02 -0.826198D-04  0.347256D-02 -0.145079D+00 -0.156633D-03
                6             7             8             9            10 
      6  0.670436D+00
      7 -0.472266D-01 -0.186533D+00
      8 -0.790561D-04  0.269119D-02 -0.102504D+00
      9 -0.106286D+00  0.578775D+00  0.112258D-01  0.258965D+01
     10 -0.109443D+00  0.986726D-01 -0.246781D-02 -0.583092D+00  0.501382D-01
     11 -0.219737D-03 -0.244836D-02  0.153308D+00 -0.111453D-01  0.274122D-02
     12 -0.530466D-01 -0.556111D+00 -0.110877D-01 -0.247430D+01  0.697299D+00
               11            12 
     11 -0.188838D+00
     12  0.113269D-01  0.252387D+01
 Internal force constants: 
                1             2             3             4             5 
      1  0.516693D+00
      2 -0.176317D-01  0.137593D+00
      3 -0.230713D-02  0.184604D+00  0.270457D+01
      4  0.187104D-01  0.652989D-01 -0.589301D-02  0.274414D+00
      5  0.108343D-01  0.270425D+00  0.796853D-01  0.179258D-01  0.353961D+00
      6  0.290149D-04  0.230405D-03  0.146494D-03 -0.164322D-03  0.398383D-03
                6 
      6  0.238842D-01
 Frcnst in PutFF: 
                1             2             3             4             5 
      1  0.516693D+00
      2 -0.176317D-01  0.137593D+00
      3 -0.230713D-02  0.184604D+00  0.270457D+01
      4  0.187104D-01  0.652989D-01 -0.589301D-02  0.274414D+00
      5  0.108343D-01  0.270425D+00  0.796853D-01  0.179258D-01  0.353961D+00
      6  0.290149D-04  0.230405D-03  0.146494D-03 -0.164322D-03  0.398383D-03
                6 
      6  0.238842D-01
 Force constants in internal coordinates: 
                1             2             3             4             5 
      1  0.516693D+00
      2 -0.176317D-01  0.137593D+00
      3 -0.230713D-02  0.184604D+00  0.270457D+01
      4  0.187104D-01  0.652989D-01 -0.589301D-02  0.274414D+00
      5  0.108343D-01  0.270425D+00  0.796853D-01  0.179258D-01  0.353961D+00
      6  0.290149D-04  0.230405D-03  0.146494D-03 -0.164322D-03  0.398383D-03
                6 
      6  0.238842D-01
 Final forces over variables, Energy=-1.65367207D+02:
 -2.07845821D-03-7.81725190D-03 4.37869023D-01 1.78372420D-02
  1.67808791D-01 1.12041455D-04
 Leave Link  716 at Fri Apr 15 18:53:56 2022, MaxMem=   131072000 cpu:               0.0 elap:               0.0
 (Enter C:\G16W\l103.exe)

 GradGradGradGradGradGradGradGradGradGradGradGradGradGradGradGradGradGrad
 Berny optimization.
 Search for a local minimum.
 Step number   1 out of a maximum of    2
 All quantities printed in internal units (Hartrees-Bohrs-Radians)
 Second derivative matrix not updated -- analytic derivatives used.
 The second derivative matrix:
                          B1        B2        B3        A1        A2
           B1           0.51669
           B2          -0.01763   0.13759
           B3          -0.00231   0.18460   2.70457
           A1           0.01871   0.06530  -0.00589   0.27441
           A2           0.01083   0.27042   0.07969   0.01793   0.35396
           D1           0.00003   0.00023   0.00015  -0.00016   0.00040
                          D1
           D1           0.02388
 ITU=  0
     Eigenvalues ---   -0.05689   0.02388   0.26943   0.51804   0.53471
     Eigenvalues ---    2.72195
 Eigenvalue     1 is  -5.69D-02 should be greater than     0.000000 Eigenvector:
                          B2        A2        A1        B3        B1
   1                    0.83178  -0.53467  -0.13799  -0.04044   0.04001
                          D1
   1                    0.00004
 Quadratic step=2.064D+00 exceeds max=3.000D-01 adjusted using Lamda=-4.254D-01.
 Angle between NR and scaled steps=  29.45 degrees.
 Angle between quadratic step and forces=  43.78 degrees.
 Linear search not attempted -- first point.
 Variable       Old X    -DE/DX   Delta X   Delta X   Delta X     New X
                                 (Linear)    (Quad)   (Total)
    B1        1.99639  -0.00208   0.00000  -0.00634  -0.00634   1.99005
    B2        2.78765  -0.00782   0.00000  -0.13238  -0.13238   2.65527
    B3        1.99698   0.43787   0.00000   0.14161   0.14161   2.13859
    A1        1.83690   0.01784   0.00000   0.02796   0.02796   1.86486
    A2        2.06468   0.16781   0.00000   0.22738   0.22738   2.29206
    D1        3.13690   0.00011   0.00000   0.00008   0.00008   3.13698
         Item               Value     Threshold  Converged?
 Maximum Force            0.437869     0.000450     NO 
 RMS     Force            0.191604     0.000300     NO 
 Maximum Displacement     0.227376     0.001800     NO 
 RMS     Displacement     0.122543     0.001200     NO 
 Predicted change in Energy=-7.333591D-02
                       ----------------------------
                       ! Non-Optimized Parameters !
                       ! (Angstroms and Degrees)  !
 ----------------------                            ----------------------
 !      Name          Value   Derivative information (Atomic Units)     !
 ------------------------------------------------------------------------
 !       B1          1.0531   -DE/DX =   -0.0021                        !
 !       B2          1.4051   -DE/DX =   -0.0078                        !
 !       B3          1.1317   -DE/DX =    0.4379                        !
 !       A1        106.8485   -DE/DX =    0.0178                        !
 !       A2        131.3251   -DE/DX =    0.1678                        !
 !       D1        179.736    -DE/DX =    0.0001                        !
 ------------------------------------------------------------------------
 GradGradGradGradGradGradGradGradGradGradGradGradGradGradGradGradGradGrad

 Leave Link  103 at Fri Apr 15 18:53:56 2022, MaxMem=   131072000 cpu:               0.0 elap:               0.0
 (Enter C:\G16W\l9999.exe)

 ----------------------------------------------------------------------

 Electric dipole moment (input orientation):
 (Debye = 10**-18 statcoulomb cm , SI units = C m)
                  (au)            (Debye)         (10**-30 SI)
   Tot        0.775042D+00      0.196996D+01      0.657108D+01
   x          0.657239D+00      0.167054D+01      0.557231D+01
   y         -0.302741D-03     -0.769490D-03     -0.256674D-02
   z         -0.410763D+00     -0.104406D+01     -0.348260D+01

 Dipole polarizability, Alpha (input orientation).
 (esu units = cm**3 , SI units = C**2 m**2 J**-1)
 Alpha(0;0):
               (au)            (10**-24 esu)      (10**-40 SI)
   iso        0.106619D+02      0.157993D+01      0.175791D+01
   aniso      0.146425D+02      0.216979D+01      0.241422D+01
   xx         0.158117D+02      0.234305D+01      0.260699D+01
   yx        -0.767548D-02     -0.113739D-02     -0.126552D-02
   yy         0.334786D+01      0.496101D+00      0.551987D+00
   zx         0.539605D+01      0.799612D+00      0.889689D+00
   zy         0.114667D-01      0.169919D-02      0.189060D-02
   zz         0.128263D+02      0.190065D+01      0.211476D+01

 First dipole hyperpolarizability, Beta (input orientation).
 ||, _|_  parallel and perpendicular components, (z) with respect to z axis,
 vector components x,y,z.  Values do not include the 1/n! factor of 1/2.
 (esu units = statvolt**-1 cm**4 , SI units = C**3 m**3 J**-2)
 Beta(0;0,0):
               (au)            (10**-30 esu)      (10**-50 SI)
   || (z)     0.307160D+01      0.265362D-01      0.984866D-02
   _|_(z)     0.102387D+01      0.884541D-02      0.328289D-02
   x          0.185528D+03      0.160282D+01      0.594871D+00
   y         -0.750087D+00     -0.648017D-02     -0.240505D-02
   z          0.153580D+02      0.132681D+00      0.492433D-01
   ||         0.372329D+02      0.321663D+00      0.119382D+00
   xxx        0.459873D+02      0.397294D+00      0.147452D+00
   xxy       -0.190148D+00     -0.164273D-02     -0.609684D-03
   yxy        0.194508D+02      0.168039D+00      0.623662D-01
   yyy        0.811236D-01      0.700845D-03      0.260112D-03
   xxz        0.112165D+02      0.969022D-01      0.359643D-01
   yxz       -0.185533D+00     -0.160286D-02     -0.594886D-03
   yyz        0.100618D+02      0.869259D-01      0.322617D-01
   zxz       -0.359522D+01     -0.310599D-01     -0.115276D-01
   zyz       -0.141004D+00     -0.121817D-02     -0.452111D-03
   zzz       -0.161590D+02     -0.139601D+00     -0.518115D-01

 ----------------------------------------------------------------------

 Dipole orientation:
     1          0.00000000          0.00000000          0.00000000
     7          1.69295129          0.00077981         -1.05806558
     6          3.74002323          0.00048388          0.83415838
     8          5.62871497         -0.00710208          0.18554627

 Electric dipole moment (dipole orientation):
 (Debye = 10**-18 statcoulomb cm , SI units = C m)
                  (au)            (Debye)         (10**-30 SI)
   Tot        0.775042D+00      0.196996D+01      0.657108D+01
   x          0.000000D+00      0.000000D+00      0.000000D+00
   y          0.000000D+00      0.000000D+00      0.000000D+00
   z          0.775042D+00      0.196996D+01      0.657108D+01

 Dipole polarizability, Alpha (dipole orientation).
 (esu units = cm**3 , SI units = C**2 m**2 J**-1)
 Alpha(0;0):
               (au)            (10**-24 esu)      (10**-40 SI)
   iso        0.106619D+02      0.157993D+01      0.175791D+01
   aniso      0.146425D+02      0.216979D+01      0.241422D+01
   xx         0.185151D+02      0.274366D+01      0.305274D+01
   yx        -0.381996D-02     -0.566060D-03     -0.629827D-03
   yy         0.334784D+01      0.496099D+00      0.551985D+00
   zx         0.370641D+01      0.549234D+00      0.611105D+00
   zy         0.107421D-01      0.159182D-02      0.177114D-02
   zz         0.101228D+02      0.150004D+01      0.166902D+01

 First dipole hyperpolarizability, Beta (dipole orientation).
 ||, _|_  parallel and perpendicular components, (z) with respect to z axis,
 vector components x,y,z.  Values do not include the 1/n! factor of 1/2.
 (esu units = statvolt**-1 cm**4 , SI units = C**3 m**3 J**-2)
 Beta(0;0,0):
               (au)            (10**-30 esu)      (10**-50 SI)
   || (z)     0.298379D+02      0.257777D+00      0.956712D-01
   _|_(z)     0.994598D+01      0.859255D-01      0.318904D-01
   x          0.111351D+03      0.961989D+00      0.357033D+00
   y          0.715920D+00      0.618499D-02      0.229550D-02
   z          0.149190D+03      0.128888D+01      0.478356D+00
   ||         0.372329D+02      0.321663D+00      0.119382D+00
   xxx        0.896383D+00      0.774405D-02      0.287413D-02
   xxy        0.304429D+00      0.263003D-02      0.976110D-03
   yxy        0.188412D+02      0.162773D+00      0.604116D-01
   yyy       -0.819660D-01     -0.708123D-03     -0.262813D-03
   xxz        0.235128D+02      0.203132D+00      0.753904D-01
   yxz        0.106637D+00      0.921260D-03      0.341916D-03
   yyz        0.111617D+02      0.964285D-01      0.357885D-01
   zxz        0.173796D+02      0.150146D+00      0.557252D-01
   zyz        0.161766D-01      0.139753D-03      0.518681D-04
   zzz        0.150554D+02      0.130067D+00      0.482731D-01

 ----------------------------------------------------------------------

 Test job not archived.
 1|1|UNPC-DESKTOP-RNC6JTU|Freq|RHF|STO-3G|C1H1N1O1|BNULK|15-Apr-2022|1|
 |#p sto-3g scf=maxcycle=999 freq=noraman IOP(7/33=1) hf||T1||0,1|H|N,1
 ,B1|C,2,B2,1,A1|O,3,B3,2,A2,1,D1,0||B1=1.056446|B2=1.475163|B3=1.05675
 4|A1=105.246373|A2=118.297427|D1=179.731229||Version=EM64W-G16RevA.03|
 State=1-A|HF=-165.3672065|RMSD=3.715e-009|RMSF=1.746e-001|ZeroPoint=0.
 0218478|Thermal=0.025103|Dipole=0.6572394,-0.0003027,-0.4107634|Dipole
 Deriv=0.2697627,0.0005187,0.1586109,-0.0005388,0.2619768,-0.000375,0.0
 433623,-0.0001558,-0.1610794,-0.1301946,-0.0024319,-0.5260591,0.000496
 7,-0.512499,0.0008174,0.0813139,0.0002242,0.041098,0.0076029,0.0023239
 ,0.6252154,0.0023133,0.2872295,0.001634,0.2768737,0.0004814,0.5949535,
 -0.147171,-0.0004107,-0.2577672,-0.0022713,-0.0367073,-0.0020764,-0.40
 155,-0.0005498,-0.4749721|Polar=15.8116538,-0.0076755,3.347856,5.39605
 23,0.0114667,12.8262549|HyperPolar=45.9872585,-0.1901483,19.4507569,0.
 0811236,11.2165409,-0.1855332,10.0617699,-3.5952222,-0.1410045,-16.158
 9772|Quadrupole=-0.3925283,0.0129565,0.3795718,-0.005932,-0.2615919,-0
 .0051435|PG=C01 [X(C1H1N1O1)]|NImag=1||0.06989263,-0.00005067,0.008698
 78,0.01384755,0.00004420,0.51669284,-0.05214910,0.00015907,-0.03364575
 ,0.09535562,0.00007956,-0.01083805,-0.00002320,0.00032827,0.02825115,0
 .04543440,0.00001299,-0.51110414,0.11123538,0.00028581,0.67043626,-0.0
 1402987,0.00000097,0.02456237,0.10189063,-0.00024380,-0.04722664,-0.18
 653333,-0.00000427,-0.00491276,-0.00005909,-0.00021911,-0.04589123,-0.
 00007906,0.00269119,-0.10250418,-0.06317306,0.00002543,-0.00906126,0.0
 6748938,-0.00010597,-0.10628551,0.57877539,0.01122581,2.58964587,-0.00
 371366,-0.00010937,-0.00476417,-0.14509714,-0.00016403,-0.10944314,0.0
 9867258,-0.00246781,-0.58309172,0.05013822,-0.00002462,0.00705203,0.00
 003809,-0.00026823,0.02847813,-0.00021974,-0.00244836,0.15330817,-0.01
 114527,0.00274122,-0.18883833,0.00389110,-0.00008262,0.00347256,-0.145
 07901,-0.00015663,-0.05304661,-0.55611112,-0.01108766,-2.47429910,0.69
 729903,0.01132691,2.52387316||0.00893473,0.00005817,-0.00207846,-0.033
 98935,0.00023489,0.06427390,0.20579564,0.00126491,0.34538379,-0.180741
 02,-0.00155797,-0.40757923|||@


 SOME PHYSICISTS WOULD PREFER TO COME BACK TO THE IDEA OF AN OBJECTIVE
 REAL WORLD WHOSE SMALLEST PARTS EXIST OBJECTIVELY IN THE SAME SENSE AS
 STONES OR TREES EXIST INDEPENDENTLY OF WHETHER WE OBSERVE THEM.
 THIS, HOWEVER, IS IMPOSSIBLE.  -- WERNER HEISENBERG
 Job cpu time:       0 days  0 hours  0 minutes  2.0 seconds.
 Elapsed time:       0 days  0 hours  0 minutes  1.4 seconds.
 File lengths (MBytes):  RWF=      6 Int=      0 D2E=      0 Chk=      1 Scr=      1
 Normal termination of Gaussian 16 at Fri Apr 15 18:53:56 2022.
