 Entering Gaussian System, Link 0=g16
 Input=State2_1.gjf
 Output=State2_1.out
 Initial command:
 C:\G16W\l1.exe ".\Gau-4116.inp" "State2_1.out" /scrdir=".\"
 Entering Link 1 = C:\G16W\l1.exe PID=     15044.
  
 Copyright (c) 1988,1990,1992,1993,1995,1998,2003,2009,2016,
            Gaussian, Inc.  All Rights Reserved.
  
 This is part of the Gaussian(R) 16 program.  It is based on
 the Gaussian(R) 09 system (copyright 2009, Gaussian, Inc.),
 the Gaussian(R) 03 system (copyright 2003, Gaussian, Inc.),
 the Gaussian(R) 98 system (copyright 1998, Gaussian, Inc.),
 the Gaussian(R) 94 system (copyright 1995, Gaussian, Inc.),
 the Gaussian 92(TM) system (copyright 1992, Gaussian, Inc.),
 the Gaussian 90(TM) system (copyright 1990, Gaussian, Inc.),
 the Gaussian 88(TM) system (copyright 1988, Gaussian, Inc.),
 the Gaussian 86(TM) system (copyright 1986, Carnegie Mellon
 University), and the Gaussian 82(TM) system (copyright 1983,
 Carnegie Mellon University). Gaussian is a federally registered
 trademark of Gaussian, Inc.
  
 This software contains proprietary and confidential information,
 including trade secrets, belonging to Gaussian, Inc.
  
 This software is provided under written license and may be
 used, copied, transmitted, or stored only in accord with that
 written license.
  
 The following legend is applicable only to US Government
 contracts under FAR:
  
                    RESTRICTED RIGHTS LEGEND
  
 Use, reproduction and disclosure by the US Government is
 subject to restrictions as set forth in subparagraphs (a)
 and (c) of the Commercial Computer Software - Restricted
 Rights clause in FAR 52.227-19.
  
 Gaussian, Inc.
 340 Quinnipiac St., Bldg. 40, Wallingford CT 06492
  
  
 ---------------------------------------------------------------
 Warning -- This program may not be used in any manner that
 competes with the business of Gaussian, Inc. or will provide
 assistance to any competitor of Gaussian, Inc.  The licensee
 of this program is prohibited from giving any competitor of
 Gaussian, Inc. access to this program.  By using this program,
 the user acknowledges that Gaussian, Inc. is engaged in the
 business of creating and licensing software in the field of
 computational chemistry and represents and warrants to the
 licensee that it is not a competitor of Gaussian, Inc. and that
 it will not use this program in any manner prohibited above.
 ---------------------------------------------------------------
  

 Cite this work as:
 Gaussian 16, Revision A.03,
 M. J. Frisch, G. W. Trucks, H. B. Schlegel, G. E. Scuseria, 
 M. A. Robb, J. R. Cheeseman, G. Scalmani, V. Barone, 
 G. A. Petersson, H. Nakatsuji, X. Li, M. Caricato, A. V. Marenich, 
 J. Bloino, B. G. Janesko, R. Gomperts, B. Mennucci, H. P. Hratchian, 
 J. V. Ortiz, A. F. Izmaylov, J. L. Sonnenberg, D. Williams-Young, 
 F. Ding, F. Lipparini, F. Egidi, J. Goings, B. Peng, A. Petrone, 
 T. Henderson, D. Ranasinghe, V. G. Zakrzewski, J. Gao, N. Rega, 
 G. Zheng, W. Liang, M. Hada, M. Ehara, K. Toyota, R. Fukuda, 
 J. Hasegawa, M. Ishida, T. Nakajima, Y. Honda, O. Kitao, H. Nakai, 
 T. Vreven, K. Throssell, J. A. Montgomery, Jr., J. E. Peralta, 
 F. Ogliaro, M. J. Bearpark, J. J. Heyd, E. N. Brothers, K. N. Kudin, 
 V. N. Staroverov, T. A. Keith, R. Kobayashi, J. Normand, 
 K. Raghavachari, A. P. Rendell, J. C. Burant, S. S. Iyengar, 
 J. Tomasi, M. Cossi, J. M. Millam, M. Klene, C. Adamo, R. Cammi, 
 J. W. Ochterski, R. L. Martin, K. Morokuma, O. Farkas, 
 J. B. Foresman, and D. J. Fox, Gaussian, Inc., Wallingford CT, 2016.
 
 ******************************************
 Gaussian 16:  EM64W-G16RevA.03 17-Dec-2016
                15-Apr-2022 
 ******************************************
 %mem=1000mb
 %chk=LiuKun2.chk
 ------------------------------------------------------
 #p sto-3g scf=maxcycle=999 freq=noraman IOP(7/33=1) hf
 ------------------------------------------------------
 1/10=4,30=1,38=1/1,3;
 2/12=2,17=6,18=5,40=1/2;
 3/6=3,11=9,25=1,30=1,71=2,140=1/1,2,3;
 4//1;
 5/5=2,7=999,38=5,98=1/2;
 8/6=4,10=90,11=11/1;
 11/6=1,8=1,9=11,15=111,16=1/1,2,10;
 10/6=1/2;
 6/7=2,8=2,9=2,10=2,28=1/1;
 7/8=1,10=1,25=1,33=1/1,2,3,16;
 1/10=4,30=1/3;
 99//99;
 Leave Link    1 at Fri Apr 15 18:53:56 2022, MaxMem=   131072000 cpu:               0.0 elap:               0.0
 (Enter C:\G16W\l101.exe)
 --
 T1
 --
 Symbolic Z-matrix:
 Charge =  0 Multiplicity = 3
 H
 N                    1    B1
 C                    2    B2       1    A1
 O                    3    B3       2    A2       1    D1       0
       Variables:
  B1                    1.05645                  
  B2                    1.47516                  
  B3                    1.05675                  
  A1                  105.24637                  
  A2                  118.29743                  
  D1                  179.73123                  
 
 ITRead=  0  0  0  0
 MicOpt= -1 -1 -1 -1
 NAtoms=      4 NQM=        4 NQMF=       0 NMMI=      0 NMMIF=      0
                NMic=       0 NMicF=      0.
                    Isotopes and Nuclear Properties:
 (Nuclear quadrupole moments (NQMom) in fm**2, nuclear magnetic moments (NMagM)
  in nuclear magnetons)

  Atom         1           2           3           4
 IAtWgt=           1          14          12          16
 AtmWgt=   1.0078250  14.0030740  12.0000000  15.9949146
 NucSpn=           1           2           0           0
 AtZEff=   0.0000000   0.0000000   0.0000000   0.0000000
 NQMom=    0.0000000   2.0440000   0.0000000   0.0000000
 NMagM=    2.7928460   0.4037610   0.0000000   0.0000000
 AtZNuc=   1.0000000   7.0000000   6.0000000   8.0000000
 Leave Link  101 at Fri Apr 15 18:53:56 2022, MaxMem=   131072000 cpu:               0.0 elap:               0.1
 (Enter C:\G16W\l103.exe)

 GradGradGradGradGradGradGradGradGradGradGradGradGradGradGradGradGradGrad
 Berny optimization.
 Initialization pass.
                       ----------------------------
                       !    Initial Parameters    !
                       ! (Angstroms and Degrees)  !
 ----------------------                            ----------------------
 !      Name          Value   Derivative information (Atomic Units)     !
 ------------------------------------------------------------------------
 !       B1          1.0564   calculate D2E/DX2 analytically            !
 !       B2          1.4752   calculate D2E/DX2 analytically            !
 !       B3          1.0568   calculate D2E/DX2 analytically            !
 !       A1        105.2464   calculate D2E/DX2 analytically            !
 !       A2        118.2974   calculate D2E/DX2 analytically            !
 !       D1        179.7312   calculate D2E/DX2 analytically            !
 ------------------------------------------------------------------------
 Trust Radius=3.00D-01 FncErr=1.00D-07 GrdErr=1.00D-07 EigMax=2.50D+02 EigMin=1.00D-04
 Number of steps in this run=      2 maximum allowed number of steps=      2.
 GradGradGradGradGradGradGradGradGradGradGradGradGradGradGradGradGradGrad

 Leave Link  103 at Fri Apr 15 18:53:56 2022, MaxMem=   131072000 cpu:               0.0 elap:               0.0
 (Enter C:\G16W\l202.exe)
                          Input orientation:                          
 ---------------------------------------------------------------------
 Center     Atomic      Atomic             Coordinates (Angstroms)
 Number     Number       Type             X           Y           Z
 ---------------------------------------------------------------------
      1          1           0        0.000000    0.000000    0.000000
      2          7           0        0.000000    0.000000    1.056446
      3          6           0        1.423243    0.000000    1.444370
      4          8           0        1.661881    0.004365    2.473817
 ---------------------------------------------------------------------
                    Distance matrix (angstroms):
                    1          2          3          4
     1  H    0.000000
     2  N    1.056446   0.000000
     3  C    2.027764   1.475163   0.000000
     4  O    2.980208   2.184218   1.056754   0.000000
 Stoichiometry    CHNO(3)
 Framework group  C1[X(CHNO)]
 Deg. of freedom     6
 Full point group                 C1      NOp   1
 Largest Abelian subgroup         C1      NOp   1
 Largest concise Abelian subgroup C1      NOp   1
                         Standard orientation:                         
 ---------------------------------------------------------------------
 Center     Atomic      Atomic             Coordinates (Angstroms)
 Number     Number       Type             X           Y           Z
 ---------------------------------------------------------------------
      1          1           0       -1.832303    0.532322    0.003150
      2          7           0       -1.119152   -0.247089   -0.000367
      3          6           0        0.192744    0.427472   -0.000672
      4          8           0        1.063738   -0.170941    0.000431
 ---------------------------------------------------------------------
 Rotational constants (GHZ):         134.1733035          12.8208027          11.7025842
 Leave Link  202 at Fri Apr 15 18:53:56 2022, MaxMem=   131072000 cpu:               0.0 elap:               0.0
 (Enter C:\G16W\l301.exe)
 Standard basis: STO-3G (5D, 7F)
 Ernie: Thresh=  0.10000D-02 Tol=  0.10000D-05 Strict=F.
 There are    16 symmetry adapted cartesian basis functions of A   symmetry.
 There are    16 symmetry adapted basis functions of A   symmetry.
    16 basis functions,    48 primitive gaussians,    16 cartesian basis functions
    12 alpha electrons       10 beta electrons
       nuclear repulsion energy        59.1626992592 Hartrees.
 IExCor=    0 DFT=F Ex=HF Corr=None ExCW=0 ScaHFX=  1.000000
 ScaDFX=  1.000000  1.000000  1.000000  1.000000 ScalE2=  1.000000  1.000000
 IRadAn=      5 IRanWt=     -1 IRanGd=            0 ICorTp=0 IEmpDi=  4
 NAtoms=    4 NActive=    4 NUniq=    4 SFac= 1.00D+00 NAtFMM=   60 NAOKFM=F Big=F
 Integral buffers will be    131072 words long.
 Raffenetti 2 integral format.
 Two-electron integral symmetry is turned on.
 Leave Link  301 at Fri Apr 15 18:53:56 2022, MaxMem=   131072000 cpu:               0.0 elap:               0.0
 (Enter C:\G16W\l302.exe)
 NPDir=0 NMtPBC=     1 NCelOv=     1 NCel=       1 NClECP=     1 NCelD=      1
         NCelK=      1 NCelE2=     1 NClLst=     1 CellRange=     0.0.
 One-electron integrals computed using PRISM.
 One-electron integral symmetry used in STVInt
 NBasis=    16 RedAO= T EigKep=  1.57D-01  NBF=    16
 NBsUse=    16 1.00D-06 EigRej= -1.00D+00 NBFU=    16
 Leave Link  302 at Fri Apr 15 18:53:57 2022, MaxMem=   131072000 cpu:               1.0 elap:               0.1
 (Enter C:\G16W\l303.exe)
 DipDrv:  MaxL=1.
 Leave Link  303 at Fri Apr 15 18:53:57 2022, MaxMem=   131072000 cpu:               0.0 elap:               0.0
 (Enter C:\G16W\l401.exe)
 ExpMin= 1.69D-01 ExpMax= 1.31D+02 ExpMxC= 1.31D+02 IAcc=3 IRadAn=         5 AccDes= 0.00D+00
 Harris functional with IExCor=  205 and IRadAn=       5 diagonalized for initial guess.
 HarFok:  IExCor=  205 AccDes= 0.00D+00 IRadAn=         5 IDoV= 1 UseB2=F ITyADJ=14
 ICtDFT=  3500011 ScaDFX=  1.000000  1.000000  1.000000  1.000000
 FoFCou: FMM=F IPFlag=           0 FMFlag=      100000 FMFlg1=           0
         NFxFlg=           0 DoJE=T BraDBF=F KetDBF=T FulRan=T
         wScrn=  0.000000 ICntrl=       500 IOpCl=  0 I1Cent=   200000004 NGrid=           0
         NMat0=    1 NMatS0=      1 NMatT0=    0 NMatD0=    1 NMtDS0=    0 NMtDT0=    0
 Petite list used in FoFCou.
 Harris En= -165.287828626749    
 JPrj=0 DoOrth=F DoCkMO=F.
 Initial guess <Sx>= 0.0000 <Sy>= 0.0000 <Sz>= 1.0000 <S**2>= 2.0000 S= 1.0000
 Leave Link  401 at Fri Apr 15 18:53:57 2022, MaxMem=   131072000 cpu:               0.0 elap:               0.2
 (Enter C:\G16W\l502.exe)
 Keep R1 and R2 ints in memory in canonical form, NReq=823488.
 FoFCou: FMM=F IPFlag=           0 FMFlag=           0 FMFlg1=           0
         NFxFlg=           0 DoJE=F BraDBF=F KetDBF=F FulRan=T
         wScrn=  0.000000 ICntrl=       600 IOpCl=  0 I1Cent=           0 NGrid=           0
         NMat0=    1 NMatS0=    136 NMatT0=    0 NMatD0=    1 NMtDS0=    0 NMtDT0=    0
 Symmetry not used in FoFCou.
 Two-electron integral symmetry not used.
 UHF open shell SCF:
 Using DIIS extrapolation, IDIIS=  1040.
 NGot=   131072000 LenX=   131051941 LenY=   131051059
 Requested convergence on RMS density matrix=1.00D-08 within 999 cycles.
 Requested convergence on MAX density matrix=1.00D-06.
 Requested convergence on             energy=1.00D-06.
 No special actions if energy rises.

 Cycle   1  Pass 1  IDiag  1:
 E= -165.363449428053    
 DIIS: error= 3.99D-02 at cycle   1 NSaved=   1.
 NSaved= 1 IEnMin= 1 EnMin= -165.363449428053     IErMin= 1 ErrMin= 3.99D-02
 ErrMax= 3.99D-02  0.00D+00 EMaxC= 1.00D-01 BMatC= 9.90D-02 BMatP= 9.90D-02
 IDIUse=3 WtCom= 6.01D-01 WtEn= 3.99D-01
 Coeff-Com:  0.100D+01
 Coeff-En:   0.100D+01
 Coeff:      0.100D+01
 Gap=     0.600 Goal=   None    Shift=    0.000
 Gap=     0.605 Goal=   None    Shift=    0.000
 GapD=    0.600 DampG=2.000 DampE=0.500 DampFc=1.0000 IDamp=-1.
 RMSDP=1.23D-02 MaxDP=8.69D-02              OVMax= 0.00D+00

 Cycle   2  Pass 1  IDiag  1:
 E= -165.393018520379     Delta-E=       -0.029569092327 Rises=F Damp=F
 DIIS: error= 1.09D-02 at cycle   2 NSaved=   2.
 NSaved= 2 IEnMin= 2 EnMin= -165.393018520379     IErMin= 2 ErrMin= 1.09D-02
 ErrMax= 1.09D-02  0.00D+00 EMaxC= 1.00D-01 BMatC= 8.79D-03 BMatP= 9.90D-02
 IDIUse=3 WtCom= 8.91D-01 WtEn= 1.09D-01
 Coeff-Com: -0.961D-01 0.110D+01
 Coeff-En:   0.000D+00 0.100D+01
 Coeff:     -0.856D-01 0.109D+01
 Gap=     0.620 Goal=   None    Shift=    0.000
 Gap=     0.621 Goal=   None    Shift=    0.000
 RMSDP=5.12D-03 MaxDP=3.03D-02 DE=-2.96D-02 OVMax= 0.00D+00

 Cycle   3  Pass 1  IDiag  1:
 E= -165.398176971329     Delta-E=       -0.005158450949 Rises=F Damp=F
 DIIS: error= 7.15D-03 at cycle   3 NSaved=   3.
 NSaved= 3 IEnMin= 3 EnMin= -165.398176971329     IErMin= 3 ErrMin= 7.15D-03
 ErrMax= 7.15D-03  0.00D+00 EMaxC= 1.00D-01 BMatC= 1.85D-03 BMatP= 8.79D-03
 IDIUse=3 WtCom= 9.28D-01 WtEn= 7.15D-02
 Coeff-Com: -0.629D-01 0.473D-01 0.102D+01
 Coeff-En:   0.000D+00 0.000D+00 0.100D+01
 Coeff:     -0.584D-01 0.440D-01 0.101D+01
 Gap=     0.629 Goal=   None    Shift=    0.000
 Gap=     0.618 Goal=   None    Shift=    0.000
 RMSDP=2.50D-03 MaxDP=1.77D-02 DE=-5.16D-03 OVMax= 0.00D+00

 Cycle   4  Pass 1  IDiag  1:
 E= -165.399257330707     Delta-E=       -0.001080359378 Rises=F Damp=F
 DIIS: error= 2.64D-03 at cycle   4 NSaved=   4.
 NSaved= 4 IEnMin= 4 EnMin= -165.399257330707     IErMin= 4 ErrMin= 2.64D-03
 ErrMax= 2.64D-03  0.00D+00 EMaxC= 1.00D-01 BMatC= 4.48D-04 BMatP= 1.85D-03
 IDIUse=3 WtCom= 9.74D-01 WtEn= 2.64D-02
 Coeff-Com:  0.176D-01-0.235D+00 0.671D-01 0.115D+01
 Coeff-En:   0.000D+00 0.000D+00 0.000D+00 0.100D+01
 Coeff:      0.172D-01-0.228D+00 0.653D-01 0.115D+01
 Gap=     0.633 Goal=   None    Shift=    0.000
 Gap=     0.620 Goal=   None    Shift=    0.000
 RMSDP=1.50D-03 MaxDP=9.69D-03 DE=-1.08D-03 OVMax= 0.00D+00

 Cycle   5  Pass 1  IDiag  1:
 E= -165.399569459521     Delta-E=       -0.000312128814 Rises=F Damp=F
 DIIS: error= 9.80D-04 at cycle   5 NSaved=   5.
 NSaved= 5 IEnMin= 5 EnMin= -165.399569459521     IErMin= 5 ErrMin= 9.80D-04
 ErrMax= 9.80D-04  0.00D+00 EMaxC= 1.00D-01 BMatC= 6.41D-05 BMatP= 4.48D-04
 IDIUse=3 WtCom= 9.90D-01 WtEn= 9.80D-03
 Coeff-Com: -0.985D-03 0.753D-01-0.123D+00-0.443D+00 0.149D+01
 Coeff-En:   0.000D+00 0.000D+00 0.000D+00 0.000D+00 0.100D+01
 Coeff:     -0.976D-03 0.745D-01-0.122D+00-0.439D+00 0.149D+01
 Gap=     0.633 Goal=   None    Shift=    0.000
 Gap=     0.620 Goal=   None    Shift=    0.000
 RMSDP=8.09D-04 MaxDP=5.25D-03 DE=-3.12D-04 OVMax= 0.00D+00

 Cycle   6  Pass 1  IDiag  1:
 E= -165.399643468125     Delta-E=       -0.000074008604 Rises=F Damp=F
 DIIS: error= 5.28D-04 at cycle   6 NSaved=   6.
 NSaved= 6 IEnMin= 6 EnMin= -165.399643468125     IErMin= 6 ErrMin= 5.28D-04
 ErrMax= 5.28D-04  0.00D+00 EMaxC= 1.00D-01 BMatC= 1.52D-05 BMatP= 6.41D-05
 IDIUse=3 WtCom= 9.95D-01 WtEn= 5.28D-03
 Coeff-Com: -0.413D-02 0.334D-01 0.270D-01-0.153D+00-0.499D+00 0.160D+01
 Coeff-En:   0.000D+00 0.000D+00 0.000D+00 0.000D+00 0.000D+00 0.100D+01
 Coeff:     -0.411D-02 0.332D-01 0.269D-01-0.153D+00-0.496D+00 0.159D+01
 Gap=     0.633 Goal=   None    Shift=    0.000
 Gap=     0.619 Goal=   None    Shift=    0.000
 RMSDP=5.72D-04 MaxDP=3.71D-03 DE=-7.40D-05 OVMax= 0.00D+00

 Cycle   7  Pass 1  IDiag  1:
 E= -165.399666818432     Delta-E=       -0.000023350307 Rises=F Damp=F
 DIIS: error= 2.81D-04 at cycle   7 NSaved=   7.
 NSaved= 7 IEnMin= 7 EnMin= -165.399666818432     IErMin= 7 ErrMin= 2.81D-04
 ErrMax= 2.81D-04  0.00D+00 EMaxC= 1.00D-01 BMatC= 2.55D-06 BMatP= 1.52D-05
 IDIUse=3 WtCom= 9.97D-01 WtEn= 2.81D-03
 Coeff-Com:  0.262D-02-0.324D-01-0.122D-01 0.154D+00 0.262D+00-0.131D+01
 Coeff-Com:  0.194D+01
 Coeff-En:   0.000D+00 0.000D+00 0.000D+00 0.000D+00 0.000D+00 0.000D+00
 Coeff-En:   0.100D+01
 Coeff:      0.262D-02-0.323D-01-0.122D-01 0.153D+00 0.261D+00-0.131D+01
 Coeff:      0.194D+01
 Gap=     0.633 Goal=   None    Shift=    0.000
 Gap=     0.619 Goal=   None    Shift=    0.000
 RMSDP=2.48D-04 MaxDP=1.74D-03 DE=-2.34D-05 OVMax= 0.00D+00

 Cycle   8  Pass 1  IDiag  1:
 E= -165.399671445297     Delta-E=       -0.000004626865 Rises=F Damp=F
 DIIS: error= 1.84D-04 at cycle   8 NSaved=   8.
 NSaved= 8 IEnMin= 8 EnMin= -165.399671445297     IErMin= 8 ErrMin= 1.84D-04
 ErrMax= 1.84D-04  0.00D+00 EMaxC= 1.00D-01 BMatC= 6.84D-07 BMatP= 2.55D-06
 IDIUse=3 WtCom= 9.98D-01 WtEn= 1.84D-03
 Coeff-Com: -0.257D-02 0.356D-01 0.100D-01-0.175D+00-0.210D+00 0.134D+01
 Coeff-Com: -0.246D+01 0.246D+01
 Coeff-En:   0.000D+00 0.000D+00 0.000D+00 0.000D+00 0.000D+00 0.000D+00
 Coeff-En:   0.000D+00 0.100D+01
 Coeff:     -0.257D-02 0.355D-01 0.100D-01-0.175D+00-0.209D+00 0.134D+01
 Coeff:     -0.245D+01 0.246D+01
 Gap=     0.633 Goal=   None    Shift=    0.000
 Gap=     0.619 Goal=   None    Shift=    0.000
 RMSDP=1.37D-04 MaxDP=1.46D-03 DE=-4.63D-06 OVMax= 0.00D+00

 Cycle   9  Pass 1  IDiag  1:
 E= -165.399673057061     Delta-E=       -0.000001611764 Rises=F Damp=F
 DIIS: error= 8.75D-05 at cycle   9 NSaved=   9.
 NSaved= 9 IEnMin= 9 EnMin= -165.399673057061     IErMin= 9 ErrMin= 8.75D-05
 ErrMax= 8.75D-05  0.00D+00 EMaxC= 1.00D-01 BMatC= 2.01D-07 BMatP= 6.84D-07
 IDIUse=1 WtCom= 1.00D+00 WtEn= 0.00D+00
 Coeff-Com:  0.260D-02-0.389D-01-0.671D-02 0.180D+00 0.184D+00-0.132D+01
 Coeff-Com:  0.266D+01-0.347D+01 0.281D+01
 Coeff:      0.260D-02-0.389D-01-0.671D-02 0.180D+00 0.184D+00-0.132D+01
 Coeff:      0.266D+01-0.347D+01 0.281D+01
 Gap=     0.634 Goal=   None    Shift=    0.000
 Gap=     0.619 Goal=   None    Shift=    0.000
 RMSDP=1.11D-04 MaxDP=1.18D-03 DE=-1.61D-06 OVMax= 0.00D+00

 Cycle  10  Pass 1  IDiag  1:
 E= -165.399673634090     Delta-E=       -0.000000577029 Rises=F Damp=F
 DIIS: error= 2.39D-05 at cycle  10 NSaved=  10.
 NSaved=10 IEnMin=10 EnMin= -165.399673634090     IErMin=10 ErrMin= 2.39D-05
 ErrMax= 2.39D-05  0.00D+00 EMaxC= 1.00D-01 BMatC= 1.61D-08 BMatP= 2.01D-07
 IDIUse=1 WtCom= 1.00D+00 WtEn= 0.00D+00
 Coeff-Com: -0.530D-03 0.869D-02 0.150D-02-0.385D-01-0.234D-01 0.246D+00
 Coeff-Com: -0.584D+00 0.938D+00-0.111D+01 0.157D+01
 Coeff:     -0.530D-03 0.869D-02 0.150D-02-0.385D-01-0.234D-01 0.246D+00
 Coeff:     -0.584D+00 0.938D+00-0.111D+01 0.157D+01
 Gap=     0.634 Goal=   None    Shift=    0.000
 Gap=     0.619 Goal=   None    Shift=    0.000
 RMSDP=2.81D-05 MaxDP=2.91D-04 DE=-5.77D-07 OVMax= 0.00D+00

 Cycle  11  Pass 1  IDiag  1:
 E= -165.399673667903     Delta-E=       -0.000000033813 Rises=F Damp=F
 DIIS: error= 5.17D-06 at cycle  11 NSaved=  11.
 NSaved=11 IEnMin=11 EnMin= -165.399673667903     IErMin=11 ErrMin= 5.17D-06
 ErrMax= 5.17D-06  0.00D+00 EMaxC= 1.00D-01 BMatC= 1.37D-09 BMatP= 1.61D-08
 IDIUse=1 WtCom= 1.00D+00 WtEn= 0.00D+00
 Coeff-Com:  0.163D-03-0.290D-02-0.403D-03 0.123D-01-0.710D-03-0.586D-01
 Coeff-Com:  0.179D+00-0.329D+00 0.440D+00-0.787D+00 0.155D+01
 Coeff:      0.163D-03-0.290D-02-0.403D-03 0.123D-01-0.710D-03-0.586D-01
 Coeff:      0.179D+00-0.329D+00 0.440D+00-0.787D+00 0.155D+01
 Gap=     0.634 Goal=   None    Shift=    0.000
 Gap=     0.619 Goal=   None    Shift=    0.000
 RMSDP=4.69D-06 MaxDP=2.61D-05 DE=-3.38D-08 OVMax= 0.00D+00

 Cycle  12  Pass 1  IDiag  1:
 E= -165.399673669656     Delta-E=       -0.000000001753 Rises=F Damp=F
 DIIS: error= 1.51D-06 at cycle  12 NSaved=  12.
 NSaved=12 IEnMin=12 EnMin= -165.399673669656     IErMin=12 ErrMin= 1.51D-06
 ErrMax= 1.51D-06  0.00D+00 EMaxC= 1.00D-01 BMatC= 2.18D-10 BMatP= 1.37D-09
 IDIUse=1 WtCom= 1.00D+00 WtEn= 0.00D+00
 Coeff-Com: -0.504D-04 0.103D-02 0.170D-03-0.399D-02 0.371D-02 0.110D-01
 Coeff-Com: -0.578D-01 0.126D+00-0.189D+00 0.384D+00-0.114D+01 0.187D+01
 Coeff:     -0.504D-04 0.103D-02 0.170D-03-0.399D-02 0.371D-02 0.110D-01
 Coeff:     -0.578D-01 0.126D+00-0.189D+00 0.384D+00-0.114D+01 0.187D+01
 Gap=     0.634 Goal=   None    Shift=    0.000
 Gap=     0.619 Goal=   None    Shift=    0.000
 RMSDP=2.59D-06 MaxDP=1.68D-05 DE=-1.75D-09 OVMax= 0.00D+00

 Cycle  13  Pass 1  IDiag  1:
 E= -165.399673670021     Delta-E=       -0.000000000365 Rises=F Damp=F
 DIIS: error= 7.36D-07 at cycle  13 NSaved=  13.
 NSaved=13 IEnMin=13 EnMin= -165.399673670021     IErMin=13 ErrMin= 7.36D-07
 ErrMax= 7.36D-07  0.00D+00 EMaxC= 1.00D-01 BMatC= 3.23D-11 BMatP= 2.18D-10
 IDIUse=1 WtCom= 1.00D+00 WtEn= 0.00D+00
 Coeff-Com:  0.808D-05-0.262D-03 0.172D-04 0.702D-03-0.307D-02 0.332D-02
 Coeff-Com:  0.106D-01-0.351D-01 0.599D-01-0.124D+00 0.522D+00-0.125D+01
 Coeff-Com:  0.182D+01
 Coeff:      0.808D-05-0.262D-03 0.172D-04 0.702D-03-0.307D-02 0.332D-02
 Coeff:      0.106D-01-0.351D-01 0.599D-01-0.124D+00 0.522D+00-0.125D+01
 Coeff:      0.182D+01
 Gap=     0.634 Goal=   None    Shift=    0.000
 Gap=     0.619 Goal=   None    Shift=    0.000
 RMSDP=8.39D-07 MaxDP=5.86D-06 DE=-3.65D-10 OVMax= 0.00D+00

 Cycle  14  Pass 1  IDiag  1:
 E= -165.399673670068     Delta-E=       -0.000000000047 Rises=F Damp=F
 DIIS: error= 2.31D-07 at cycle  14 NSaved=  14.
 NSaved=14 IEnMin=14 EnMin= -165.399673670068     IErMin=14 ErrMin= 2.31D-07
 ErrMax= 2.31D-07  0.00D+00 EMaxC= 1.00D-01 BMatC= 3.41D-12 BMatP= 3.23D-11
 IDIUse=1 WtCom= 1.00D+00 WtEn= 0.00D+00
 Coeff-Com:  0.316D-05 0.969D-05-0.407D-04 0.152D-03 0.175D-02-0.462D-02
 Coeff-Com:  0.280D-02 0.300D-02-0.978D-02 0.206D-01-0.166D+00 0.517D+00
 Coeff-Com: -0.109D+01 0.172D+01
 Coeff:      0.316D-05 0.969D-05-0.407D-04 0.152D-03 0.175D-02-0.462D-02
 Coeff:      0.280D-02 0.300D-02-0.978D-02 0.206D-01-0.166D+00 0.517D+00
 Coeff:     -0.109D+01 0.172D+01
 Gap=     0.634 Goal=   None    Shift=    0.000
 Gap=     0.619 Goal=   None    Shift=    0.000
 RMSDP=2.83D-07 MaxDP=2.53D-06 DE=-4.67D-11 OVMax= 0.00D+00

 Cycle  15  Pass 1  IDiag  1:
 E= -165.399673670074     Delta-E=       -0.000000000006 Rises=F Damp=F
 DIIS: error= 8.71D-08 at cycle  15 NSaved=  15.
 NSaved=15 IEnMin=15 EnMin= -165.399673670074     IErMin=15 ErrMin= 8.71D-08
 ErrMax= 8.71D-08  0.00D+00 EMaxC= 1.00D-01 BMatC= 3.17D-13 BMatP= 3.41D-12
 IDIUse=1 WtCom= 1.00D+00 WtEn= 0.00D+00
 Coeff-Com: -0.249D-05 0.254D-04 0.185D-04-0.168D-03-0.520D-03 0.195D-02
 Coeff-Com: -0.263D-02 0.259D-02-0.203D-02 0.425D-02 0.246D-01-0.121D+00
 Coeff-Com:  0.351D+00-0.867D+00 0.161D+01
 Coeff:     -0.249D-05 0.254D-04 0.185D-04-0.168D-03-0.520D-03 0.195D-02
 Coeff:     -0.263D-02 0.259D-02-0.203D-02 0.425D-02 0.246D-01-0.121D+00
 Coeff:      0.351D+00-0.867D+00 0.161D+01
 Gap=     0.634 Goal=   None    Shift=    0.000
 Gap=     0.619 Goal=   None    Shift=    0.000
 RMSDP=7.20D-08 MaxDP=5.94D-07 DE=-5.71D-12 OVMax= 0.00D+00

 Cycle  16  Pass 1  IDiag  1:
 E= -165.399673670074     Delta-E=        0.000000000000 Rises=F Damp=F
 DIIS: error= 3.02D-08 at cycle  16 NSaved=  16.
 NSaved=16 IEnMin=16 EnMin= -165.399673670074     IErMin=16 ErrMin= 3.02D-08
 ErrMax= 3.02D-08  0.00D+00 EMaxC= 1.00D-01 BMatC= 5.89D-14 BMatP= 3.17D-13
 IDIUse=1 WtCom= 1.00D+00 WtEn= 0.00D+00
 Large coefficients: NSaved= 16 BigCof=    0.00 CofMax=   10.00 Det=-9.49D-15
 Inversion failed.  Reducing to 15 matrices.
 Coeff-Com:  0.132D-04-0.118D-04-0.705D-05 0.402D-03-0.814D-03 0.101D-03
 Coeff-Com:  0.111D-02-0.193D-02 0.108D-02-0.313D-01 0.120D+00-0.327D+00
 Coeff-Com:  0.834D+00-0.188D+01 0.228D+01
 Coeff:      0.132D-04-0.118D-04-0.705D-05 0.402D-03-0.814D-03 0.101D-03
 Coeff:      0.111D-02-0.193D-02 0.108D-02-0.313D-01 0.120D+00-0.327D+00
 Coeff:      0.834D+00-0.188D+01 0.228D+01
 Gap=     0.634 Goal=   None    Shift=    0.000
 Gap=     0.619 Goal=   None    Shift=    0.000
 RMSDP=4.21D-08 MaxDP=2.61D-07 DE=-2.27D-13 OVMax= 0.00D+00

 Cycle  17  Pass 1  IDiag  1:
 E= -165.399673670074     Delta-E=        0.000000000000 Rises=F Damp=F
 DIIS: error= 6.66D-09 at cycle  17 NSaved=  16.
 NSaved=16 IEnMin=16 EnMin= -165.399673670074     IErMin=16 ErrMin= 6.66D-09
 ErrMax= 6.66D-09  0.00D+00 EMaxC= 1.00D-01 BMatC= 4.17D-15 BMatP= 5.89D-14
 IDIUse=1 WtCom= 1.00D+00 WtEn= 0.00D+00
 Large coefficients: NSaved= 16 BigCof=    0.00 CofMax=   10.00 Det=-1.25D-15
 Inversion failed.  Reducing to 15 matrices.
 Coeff-Com:  0.139D-05-0.238D-05-0.126D-04 0.293D-04-0.500D-04 0.143D-03
 Coeff-Com: -0.311D-03 0.113D-02-0.184D-02-0.203D-03 0.156D-01-0.739D-01
 Coeff-Com:  0.253D+00-0.570D+00 0.138D+01
 Coeff:      0.139D-05-0.238D-05-0.126D-04 0.293D-04-0.500D-04 0.143D-03
 Coeff:     -0.311D-03 0.113D-02-0.184D-02-0.203D-03 0.156D-01-0.739D-01
 Coeff:      0.253D+00-0.570D+00 0.138D+01
 Gap=     0.634 Goal=   None    Shift=    0.000
 Gap=     0.619 Goal=   None    Shift=    0.000
 RMSDP=1.06D-08 MaxDP=7.16D-08 DE=-2.84D-14 OVMax= 0.00D+00

 Cycle  18  Pass 1  IDiag  1:
 E= -165.399673670074     Delta-E=        0.000000000000 Rises=F Damp=F
 DIIS: error= 1.52D-09 at cycle  18 NSaved=  16.
 NSaved=16 IEnMin=16 EnMin= -165.399673670074     IErMin=16 ErrMin= 1.52D-09
 ErrMax= 1.52D-09  0.00D+00 EMaxC= 1.00D-01 BMatC= 2.18D-16 BMatP= 4.17D-15
 IDIUse=1 WtCom= 1.00D+00 WtEn= 0.00D+00
 Large coefficients: NSaved= 16 BigCof=    0.00 CofMax=   10.00 Det=-2.20D-16
 Inversion failed.  Reducing to 15 matrices.
 Coeff-Com: -0.291D-06-0.194D-05 0.715D-05-0.535D-05-0.796D-05 0.274D-04
 Coeff-Com: -0.936D-04 0.511D-03-0.167D-02 0.339D-02-0.453D-02-0.923D-02
 Coeff-Com:  0.104D+00-0.541D+00 0.145D+01
 Coeff:     -0.291D-06-0.194D-05 0.715D-05-0.535D-05-0.796D-05 0.274D-04
 Coeff:     -0.936D-04 0.511D-03-0.167D-02 0.339D-02-0.453D-02-0.923D-02
 Coeff:      0.104D+00-0.541D+00 0.145D+01
 Gap=     0.634 Goal=   None    Shift=    0.000
 Gap=     0.619 Goal=   None    Shift=    0.000
 RMSDP=1.66D-09 MaxDP=7.74D-09 DE=-1.14D-13 OVMax= 0.00D+00

 SCF Done:  E(UHF) =  -165.399673670     A.U. after   18 cycles
            NFock= 18  Conv=0.17D-08     -V/T= 2.0045
 <Sx>= 0.0000 <Sy>= 0.0000 <Sz>= 1.0000 <S**2>= 2.0333 S= 1.0111
 <L.S>= 0.000000000000E+00
 KE= 1.646507828269D+02 PE=-5.082395623682D+02 EE= 1.190264066120D+02
 Annihilation of the first spin contaminant:
 S**2 before annihilation     2.0333,   after     2.0005
 Leave Link  502 at Fri Apr 15 18:53:57 2022, MaxMem=   131072000 cpu:               0.0 elap:               0.1
 (Enter C:\G16W\l801.exe)
 Range of M.O.s used for correlation:     1    16
 NBasis=    16 NAE=    12 NBE=    10 NFC=     0 NFV=     0
 NROrb=     16 NOA=    12 NOB=    10 NVA=     4 NVB=     6
 Leave Link  801 at Fri Apr 15 18:53:57 2022, MaxMem=   131072000 cpu:               0.0 elap:               0.0
 (Enter C:\G16W\l1101.exe)
 Using compressed storage, NAtomX=     4.
 Will process      5 centers per pass.
 Leave Link 1101 at Fri Apr 15 18:53:57 2022, MaxMem=   131072000 cpu:               0.0 elap:               0.0
 (Enter C:\G16W\l1102.exe)
 Symmetrizing basis deriv contribution to polar:
 IMax=3 JMax=2 DiffMx= 0.00D+00
 Leave Link 1102 at Fri Apr 15 18:53:57 2022, MaxMem=   131072000 cpu:               0.0 elap:               0.0
 (Enter C:\G16W\l1110.exe)
 Forming Gx(P) for the SCF density, NAtomX=     4.
 Integral derivatives from FoFJK, PRISM(SPDF).
 Do as many integral derivatives as possible in FoFJK.
 G2DrvN: MDV=     131071592.
 G2DrvN: will do     5 centers at a time, making    1 passes.
 Calling FoFCou, ICntrl=  3107 FMM=F I1Cent=   0 AccDes= 0.00D+00.
 FoFJK:  IHMeth= 1 ICntrl=    3107 DoSepK=F KAlg= 0 I1Cent=           0 FoldK=F
 IRaf=         0 NMat=       1 IRICut=       1 DoRegI=T DoRafI=F ISym2E= 0 IDoP0=0 IntGTp=1.
 FoFCou: FMM=F IPFlag=           0 FMFlag=      100000 FMFlg1=           0
         NFxFlg=           0 DoJE=F BraDBF=F KetDBF=F FulRan=T
         wScrn=  0.000000 ICntrl=      3107 IOpCl=  1 I1Cent=           0 NGrid=           0
         NMat0=    1 NMatS0=      1 NMatT0=    0 NMatD0=    1 NMtDS0=    0 NMtDT0=    0
 Symmetry not used in FoFCou.
 End of G2Drv F.D. properties file   721 does not exist.
 End of G2Drv F.D. properties file   722 does not exist.
 End of G2Drv F.D. properties file   788 does not exist.
 Leave Link 1110 at Fri Apr 15 18:53:57 2022, MaxMem=   131072000 cpu:               0.0 elap:               0.1
 (Enter C:\G16W\l1002.exe)
 Minotr:  UHF open shell wavefunction.
          IDoAtm=1111
          Direct CPHF calculation.
          Differentiating once with respect to electric field.
                with respect to dipole field.
          Differentiating once with respect to nuclear coordinates.
          Requested convergence is 1.0D-08 RMS, and 1.0D-07 maximum.
          Secondary convergence is 1.0D-12 RMS, and 1.0D-12 maximum.
          NewPWx=T KeepS1=F KeepF1=F KeepIn=T MapXYZ=F SortEE=F KeepMc=T.
 Keep R1 and R2 ints in memory in canonical form, NReq=824015.
 FoFCou: FMM=F IPFlag=           0 FMFlag=           0 FMFlg1=           0
         NFxFlg=           0 DoJE=F BraDBF=F KetDBF=F FulRan=T
         wScrn=  0.000000 ICntrl=       600 IOpCl=  0 I1Cent=           0 NGrid=           0
         NMat0=    1 NMatS0=    136 NMatT0=    0 NMatD0=    1 NMtDS0=    0 NMtDT0=    0
 Symmetry not used in FoFCou.
 Two-electron integral symmetry not used.
          MDV=     131072000 using IRadAn=       1.
          Solving linear equations simultaneously, MaxMat=       0.
          There are    15 degrees of freedom in the 1st order CPHF.  IDoFFX=6 NUNeed=     3.
     12 vectors produced by pass  0 Test12= 7.20D-16 6.67D-09 XBig12= 7.64D+00 1.36D+00.
 AX will form    12 AO Fock derivatives at one time.
     12 vectors produced by pass  1 Test12= 7.20D-16 6.67D-09 XBig12= 3.91D-01 2.23D-01.
     12 vectors produced by pass  2 Test12= 7.20D-16 6.67D-09 XBig12= 1.17D-02 3.70D-02.
     12 vectors produced by pass  3 Test12= 7.20D-16 6.67D-09 XBig12= 1.51D-04 4.00D-03.
     12 vectors produced by pass  4 Test12= 7.20D-16 6.67D-09 XBig12= 1.40D-06 3.55D-04.
     12 vectors produced by pass  5 Test12= 7.20D-16 6.67D-09 XBig12= 3.60D-09 2.09D-05.
     12 vectors produced by pass  6 Test12= 7.20D-16 6.67D-09 XBig12= 7.58D-12 1.14D-06.
      5 vectors produced by pass  7 Test12= 7.20D-16 6.67D-09 XBig12= 2.20D-14 5.19D-08.
 InvSVY:  IOpt=1 It=  1 EMax= 1.44D-15
 Solved reduced A of dimension    89 with    12 vectors.
 FullF1:  Do perturbations      1 to       3.
 Isotropic polarizability for W=    0.000000        9.45 Bohr**3.
 End of Minotr F.D. properties file   721 does not exist.
 End of Minotr F.D. properties file   722 does not exist.
 End of Minotr F.D. properties file   788 does not exist.
 Leave Link 1002 at Fri Apr 15 18:53:57 2022, MaxMem=   131072000 cpu:               0.0 elap:               0.1
 (Enter C:\G16W\l601.exe)
 Copying SCF densities to generalized density rwf, IOpCl= 1 IROHF=0.

 **********************************************************************

            Population analysis using the SCF density.

 **********************************************************************

 Orbital symmetries:
 Alpha Orbitals:
       Occupied  (A) (A) (A) (A) (A) (A) (A) (A) (A) (A) (A) (A)
       Virtual   (A) (A) (A) (A)
 Beta  Orbitals:
       Occupied  (A) (A) (A) (A) (A) (A) (A) (A) (A) (A)
       Virtual   (A) (A) (A) (A) (A) (A)
 The electronic state is 3-A.
 Alpha  occ. eigenvalues --  -20.41152 -15.39206 -11.13601  -1.51551  -1.17080
 Alpha  occ. eigenvalues --   -0.72549  -0.69141  -0.62004  -0.58509  -0.49431
 Alpha  occ. eigenvalues --   -0.46709  -0.28581
 Alpha virt. eigenvalues --    0.34771   0.57055   0.65312   1.19174
  Beta  occ. eigenvalues --  -20.39767 -15.35754 -11.12531  -1.46930  -1.00776
  Beta  occ. eigenvalues --   -0.67518  -0.59284  -0.54996  -0.46897  -0.39629
  Beta virt. eigenvalues --    0.22312   0.25553   0.44694   0.62126   0.74793
  Beta virt. eigenvalues --    1.22978
          Condensed to atoms (all electrons):
               1          2          3          4
     1  H    0.592115   0.288480  -0.033817   0.001901
     2  N    0.288480   6.720728   0.202905  -0.037643
     3  C   -0.033817   0.202905   5.078783   0.514035
     4  O    0.001901  -0.037643   0.514035   7.736655
          Atomic-Atomic Spin Densities.
               1          2          3          4
     1  H   -0.089628  -0.012480   0.000598  -0.000106
     2  N   -0.012480   1.493062  -0.050242  -0.005554
     3  C    0.000598  -0.050242   0.420396  -0.118837
     4  O   -0.000106  -0.005554  -0.118837   0.549410
 Mulliken charges and spin densities:
               1          2
     1  H    0.151321  -0.101615
     2  N   -0.174470   1.424787
     3  C    0.238095   0.251915
     4  O   -0.214947   0.424913
 Sum of Mulliken charges =   0.00000   2.00000
 Mulliken charges and spin densities with hydrogens summed into heavy atoms:
               1          2
     2  N   -0.023149   1.323172
     3  C    0.238095   0.251915
     4  O   -0.214947   0.424913
 APT charges:
               1
     1  H    0.129964
     2  N   -0.091930
     3  C    0.164092
     4  O   -0.202126
 Sum of APT charges =   0.00000
 APT charges with hydrogens summed into heavy atoms:
               1
     2  N    0.038034
     3  C    0.164092
     4  O   -0.202126
 Electronic spatial extent (au):  <R**2>=            117.1060
 Charge=              0.0000 electrons
 Dipole moment (field-independent basis, Debye):
    X=             -1.0761    Y=              1.3341    Z=              0.0045  Tot=              1.7141
 Quadrupole moment (field-independent basis, Debye-Ang):
   XX=            -15.0790   YY=            -15.9492   ZZ=            -13.8916
   XY=             -1.4382   XZ=             -0.0084   YZ=              0.0014
 Traceless Quadrupole moment (field-independent basis, Debye-Ang):
   XX=             -0.1057   YY=             -0.9759   ZZ=              1.0817
   XY=             -1.4382   XZ=             -0.0084   YZ=              0.0014
 Octapole moment (field-independent basis, Debye-Ang**2):
  XXX=             -1.8422  YYY=             -1.5050  ZZZ=              0.0032  XYY=              1.3814
  XXY=              3.2640  XXZ=              0.0097  XZZ=              1.2396  YZZ=             -0.4436
  YYZ=              0.0048  XYZ=             -0.0003
 Hexadecapole moment (field-independent basis, Debye-Ang**3):
 XXXX=            -87.3170 YYYY=            -20.2864 ZZZZ=             -8.6296 XXXY=             -4.8381
 XXXZ=             -0.0202 YYYX=             -1.8968 YYYZ=              0.0021 ZZZX=              0.0018
 ZZZY=              0.0002 XXYY=            -18.4408 XXZZ=            -16.1513 YYZZ=             -4.6575
 XXYZ=              0.0043 YYXZ=             -0.0030 ZZXY=             -0.3368
 N-N= 5.916269925921D+01 E-N=-5.082395623689D+02  KE= 1.646507828269D+02
  Exact polarizability:  15.198  -1.419   7.656  -0.005  -0.003   5.508
 Approx polarizability:  13.641  -2.847   7.371   0.000   0.001   2.775
                          Isotropic Fermi Contact Couplings
        Atom                 a.u.       MegaHertz       Gauss      10(-4) cm-1
     1  H(1)              -0.03602     -80.51228     -28.72878     -26.85601
     2  N(14)              0.13623      22.00793       7.85298       7.34106
     3  C(13)              0.27031     151.93909      54.21565      50.68142
     4  O(17)              0.07562     -22.91973      -8.17833      -7.64520
 --------------------------------------------------------
       Center         ----  Spin Dipole Couplings  ----
                      3XX-RR        3YY-RR        3ZZ-RR
 --------------------------------------------------------
     1   Atom        0.048675      0.040540     -0.089215
     2   Atom       -0.629783     -0.699561      1.329344
     3   Atom       -0.203235      0.547203     -0.343968
     4   Atom       -0.526734      0.627650     -0.100916
 --------------------------------------------------------
                        XY            XZ            YZ
 --------------------------------------------------------
     1   Atom       -0.161017     -0.000742      0.000696
     2   Atom        0.492134      0.005266     -0.006942
     3   Atom       -0.065742      0.000231     -0.000527
     4   Atom        0.454961     -0.002615     -0.002237
 --------------------------------------------------------


 ---------------------------------------------------------------------------------
              Anisotropic Spin Dipole Couplings in Principal Axis System
 ---------------------------------------------------------------------------------

       Atom             a.u.   MegaHertz   Gauss  10(-4) cm-1        Axes

              Baa    -0.1165   -62.138   -22.172   -20.727  0.6981  0.7160  0.0007
     1 H(1)   Bbb    -0.0892   -47.603   -16.986   -15.879  0.0020 -0.0029  1.0000
              Bcc     0.2057   109.741    39.158    36.606  0.7160 -0.6981 -0.0034
 
              Baa    -1.1581   -44.664   -15.937   -14.898 -0.6816  0.7317  0.0035
     2 N(14)  Bbb    -0.1713    -6.607    -2.357    -2.204  0.7317  0.6816  0.0006
              Bcc     1.3294    51.271    18.295    17.102  0.0019 -0.0029  1.0000
 
              Baa    -0.3440   -46.157   -16.470   -15.396 -0.0014  0.0005  1.0000
     3 C(13)  Bbb    -0.2090   -28.039   -10.005    -9.353  0.9962  0.0866  0.0014
              Bcc     0.5529    74.196    26.475    24.749 -0.0866  0.9962 -0.0006
 
              Baa    -0.6845    49.529    17.673    16.521  0.9448 -0.3276  0.0030
     4 O(17)  Bbb    -0.1009     7.303     2.606     2.436 -0.0017  0.0041  1.0000
              Bcc     0.7854   -56.832   -20.279   -18.957  0.3276  0.9448 -0.0034
 

 ---------------------------------------------------------------------------------

 No NMR shielding tensors so no spin-rotation constants.
 Leave Link  601 at Fri Apr 15 18:53:57 2022, MaxMem=   131072000 cpu:               0.0 elap:               0.1
 (Enter C:\G16W\l701.exe)
 SCFChk:  SCF convergence  1.66D-09 required  1.00D-08
 ... and contract with generalized density number  0.
 Compute integral second derivatives.
 Entering OneElI...
 Calculate overlap and kinetic energy integrals
    NBasis =  16  MinDer = 2  MaxDer = 2
 Requested accuracy = 0.1000D-12
 PrmmSu-InSpLW:  IPartL=    0 NPrtUS=    1 NPrtUL=    1 DoSpLW=F IThBeg=    0 IThEnd=    0 NThAct=    1.
 PrsmSu:  NPrtUS=   1 ThrOK=F IAlg=1 NPAlg=1 LenDen=           0 ISkipM=0 DoSpLW=F IThBeg=    0 IThEnd=    0.
 Prism:   IPart=     0 DynPar=F LinDyn=F Incr=           1.
 PRISM was handed   131065491 working-precision words and    28 shell-pairs
 IPart=  0 NShTot=          28 NBatch=           7 AvBLen=         4.0
 PrSmSu:  NxtVal=              2.
 Entering OneElI...
 Calculate potential energy integrals
    NBasis =  16  MinDer = 2  MaxDer = 2
 Requested accuracy = 0.1000D-12
 PrmmSu-InSpLW:  IPartL=    0 NPrtUS=    1 NPrtUL=    1 DoSpLW=F IThBeg=    0 IThEnd=    0 NThAct=    1.
 PrsmSu:  NPrtUS=   1 ThrOK=F IAlg=1 NPAlg=1 LenDen=           0 ISkipM=0 DoSpLW=F IThBeg=    0 IThEnd=    0.
 Prism:   IPart=     0 DynPar=F LinDyn=F Incr=           1.
 PRISM was handed   131065811 working-precision words and    27 shell-pairs
 IPart=  0 NShTot=         108 NBatch=          27 AvBLen=         4.0
 PrSmSu:  NxtVal=              2.
 Polarizability after L701:
                1             2             3 
      1  0.151982D+02
      2 -0.141933D+01  0.765604D+01
      3 -0.457813D-02 -0.274923D-02  0.550778D+01
 Dipole Derivatives after L701:
                 1             2             3             4             5 
      1   0.148235D+00  0.157532D+00  0.700788D-03 -0.158548D+00 -0.215990D+00
      2   0.977901D-01 -0.465562D-01 -0.109834D-02  0.552777D-01  0.196612D+00
      3   0.615337D-03 -0.124714D-02  0.288214D+00 -0.101985D-03  0.159314D-02
                 6             7             8             9            10 
      1  -0.632436D-03  0.435642D+00 -0.964329D-01  0.277609D-03 -0.425329D+00
      2   0.146800D-02 -0.183364D+00 -0.288690D-01 -0.513866D-03  0.302958D-01
      3  -0.313854D+00 -0.805223D-03  0.201433D-03  0.855022D-01  0.291871D-03
                11            12 
      1   0.154891D+00 -0.345961D-03
      2  -0.121187D+00  0.144205D-03
      3  -0.547433D-03 -0.598622D-01
 Hessian after L701:
                1             2             3             4             5 
      1  0.180222D+01
      2  0.839514D+00  0.164417D+01
      3  0.320206D-02 -0.368171D-02  0.242479D+01
      4 -0.177623D+01 -0.682002D+00 -0.315072D-02  0.105095D+01
      5 -0.826044D+00 -0.170007D+01  0.358050D-02 -0.125478D+01  0.497691D+01
      6 -0.352141D-02  0.334424D-02 -0.241857D+01  0.356383D-02 -0.272073D-02
      7 -0.154766D+00 -0.623652D-01  0.249363D-03  0.855973D-01  0.183005D+01
      8  0.615978D-01  0.637077D-01 -0.985144D-04  0.176373D+01 -0.277206D+01
      9  0.590820D-03  0.250774D-03  0.385035D-01 -0.904525D-03 -0.973273D-03
     10  0.128768D+00 -0.951471D-01 -0.300698D-03  0.639681D+00  0.250774D+00
     11 -0.750672D-01 -0.780897D-02  0.199723D-03  0.173050D+00 -0.504781D+00
     12 -0.271468D-03  0.866960D-04 -0.447209D-01  0.491418D-03  0.113503D-03
                6             7             8             9            10 
      6  0.658735D+01
      7 -0.558479D-03  0.576456D+01
      8 -0.582038D-03  0.260472D+01  0.120524D+02
      9 -0.362455D+01 -0.942875D-02  0.875697D-02  0.180551D+02
     10  0.516059D-03 -0.569539D+01 -0.443005D+01  0.974245D-02  0.492694D+01
     11 -0.414705D-04 -0.437241D+01 -0.934403D+01 -0.803447D-02  0.427443D+01
     12 -0.544229D+00  0.973786D-02 -0.807642D-02 -0.144691D+02 -0.995781D-02
               11            12 
     11  0.985662D+01
     12  0.787622D-02  0.150581D+02
 Leave Link  701 at Fri Apr 15 18:53:58 2022, MaxMem=   131072000 cpu:               1.0 elap:               0.1
 (Enter C:\G16W\l702.exe)
 L702 exits ... SP integral derivatives will be done elsewhere.
 Leave Link  702 at Fri Apr 15 18:53:58 2022, MaxMem=   131072000 cpu:               0.0 elap:               0.0
 (Enter C:\G16W\l703.exe)
 Integral derivatives from FoFJK, PRISM(SPDF).
 Compute integral second derivatives, UseDBF=F ICtDFT=           0.
 ICntrl=    100127.
 Calling FoFJK, ICntrl=    100127 FMM=F ISym2X=0 I1Cent= 0 IOpClX= 1 NMat=1 NMatS=1 NMatT=0.
 FoFJK:  IHMeth= 1 ICntrl=  100127 DoSepK=F KAlg= 0 I1Cent=           0 FoldK=F
 IRaf=         0 NMat=       1 IRICut=       1 DoRegI=T DoRafI=F ISym2E= 0 IDoP0=0 IntGTp=1.
 FoFCou: FMM=F IPFlag=           0 FMFlag=      100000 FMFlg1=         800
         NFxFlg=           0 DoJE=F BraDBF=F KetDBF=F FulRan=T
         wScrn=  0.000000 ICntrl=    100127 IOpCl=  1 I1Cent=           0 NGrid=           0
         NMat0=    1 NMatS0=      1 NMatT0=    0 NMatD0=    1 NMtDS0=    0 NMtDT0=    0
 Symmetry not used in FoFCou.
 FoFCou:  KetSym=F NOpSet=  1 NOpAb=1 NOp=  1.
 FoFCou:  CnvScl= 1.00D+00 Thresh= 1.00D-12 IAcrcy=      10.
 PrismS was handed   131065836 working-precision words and    28 shell-pairs
 FoFCou: LinMIO=F DoNuc=F BraDBF=F KetDBF=F HaveP=T PDBF=F HaveZ=T HaveW=F
         NIJTC =       3 NIJTAt=       0 NIJTCD=       0 NIJTT =       3
         IJTBeg=       1 IJTEnd=       3 KLTBeg=       1 KLTEnd=       3
         IPTBeg=       1 IPTEnd=       3 IPTBCv=       1 IPTECv=       3
         IZTBeg=       1 IZTEnd=       3 IZTBCv=       1 IZTECv=       3
         IWTBeg=       4 IWTEnd=       3 IWTBCv=       4 IWTECv=       3
         INTBeg=       1 INTEnd=       0 IFTBCv=       1 IFTECv=       3
 NCel replicated for PrismC:     1
 CoulSu-InSpLW:  IPartL=    0 NPrtUS=    1 NPrtUL=    1 DoSpLW=F IThBeg=    0 IThEnd=    0 NThAct=    1.
 CoulSu:  IncDef=  1024 NBBP=            406 NTPThr=   100 NPartT=    1 Incr=           4 LDynOK=F GPUOK=T.
 CoulSu:  NPrtUS=   1 ThrOK=F IAlg=1 NPAlg=1 LenDen=           0 LWGrdD=           0 DoCopy=F ISkipM=0
          DoSpLW=F IThBeg=    0 IThEnd=    0.
 Enter PrismC:  IPart=  0 JobTyp=22 DoJE=F Cont=F.
 PrismC:  IPart=     0 DynPar=F LinDyn=F Incr=           4 UseFst=F UseS4=T ISplat=2.
 PrismC was handed   131065746 working-precision words and    28 shell-pairs
 IPart=  0 NShTot=         376 NShNF=         376 NShFF=           0 MinMC=      10
           NShCPU=         376 NBCPU=          43 AvBCPU=         8.7
           NShGPU=           0 NBGPU=           0 AvBGPU=         0.0
 CoulSu:  NxtVal=              5 LenVP=      131065747 MinMC=      10.
 Polarizability after L703:
                1             2             3 
      1  0.151982D+02
      2 -0.141933D+01  0.765604D+01
      3 -0.457813D-02 -0.274923D-02  0.550778D+01
 Dipole Derivatives after L703:
                 1             2             3             4             5 
      1   0.148235D+00  0.157532D+00  0.700788D-03 -0.158548D+00 -0.215990D+00
      2   0.977901D-01 -0.465562D-01 -0.109834D-02  0.552777D-01  0.196612D+00
      3   0.615337D-03 -0.124714D-02  0.288214D+00 -0.101985D-03  0.159314D-02
                 6             7             8             9            10 
      1  -0.632436D-03  0.435642D+00 -0.964329D-01  0.277609D-03 -0.425329D+00
      2   0.146800D-02 -0.183364D+00 -0.288690D-01 -0.513866D-03  0.302958D-01
      3  -0.313854D+00 -0.805223D-03  0.201433D-03  0.855022D-01  0.291871D-03
                11            12 
      1   0.154891D+00 -0.345961D-03
      2  -0.121187D+00  0.144205D-03
      3  -0.547433D-03 -0.598622D-01
 Hessian after L703:
                1             2             3             4             5 
      1  0.283243D+00
      2 -0.229447D+00  0.302494D+00
      3 -0.118354D-02  0.126412D-02 -0.689715D-03
      4 -0.250904D+00  0.270915D+00  0.118952D-02  0.517195D+00
      5  0.191061D+00 -0.313081D+00 -0.118797D-02 -0.188120D+00  0.382298D+00
      6  0.105801D-02 -0.135775D-02 -0.198314D-03 -0.117507D-02  0.132331D-02
      7 -0.220518D-01 -0.360785D-01 -0.528480D-04 -0.744812D-01  0.174137D-01
      8  0.484465D-01  0.103874D-01 -0.129969D-03 -0.120620D+00 -0.141226D+00
      9  0.138841D-03  0.118565D-03  0.588224D-03  0.156685D-03 -0.113335D-03
     10 -0.102875D-01 -0.538934D-02  0.468651D-04 -0.191811D+00 -0.203549D-01
     11 -0.100604D-01  0.200260D-03  0.538151D-04  0.378243D-01  0.720089D-01
     12 -0.133093D-04 -0.249295D-04  0.299806D-03 -0.171143D-03 -0.220126D-04
                6             7             8             9            10 
      6 -0.209407D-01
      7  0.171929D-03  0.174751D+01
      8  0.122943D-03 -0.128254D+01  0.936275D+00
      9  0.117178D-01  0.226053D-02 -0.176174D-02 -0.245951D+00
     10 -0.548726D-04 -0.165097D+01  0.135471D+01 -0.255606D-02  0.185307D+01
     11 -0.885011D-04  0.130120D+01 -0.805436D+00  0.175651D-02 -0.132897D+01
     12  0.942126D-02 -0.237961D-02  0.176877D-02  0.233645D+00  0.256407D-02
               11            12 
     11  0.733227D+00
     12 -0.172183D-02 -0.243366D+00
 Leave Link  703 at Fri Apr 15 18:53:58 2022, MaxMem=   131072000 cpu:               0.0 elap:               0.1
 (Enter C:\G16W\l716.exe)
 FrcOut:
 IF    =        44 IFX   =        56 IFXYZ =        68
 IFFX  =        80 IFFFX =       158 IFLen =        12
 IFFLen=        78 IFFFLn=         0 IEDerv=       158
 LEDerv=       629 IFroze=       957 ICStrt=      1554
 Dipole        =-4.23383886D-01 5.24890258D-01 1.77623024D-03
 DipoleDeriv   = 1.48234833D-01 9.77901371D-02 6.15337048D-04
                 1.57532391D-01-4.65561926D-02-1.24713542D-03
                 7.00788248D-04-1.09834223D-03 2.88213904D-01
                -1.58547640D-01 5.52776856D-02-1.01984728D-04
                -2.15990253D-01 1.96612132D-01 1.59313512D-03
                -6.32436331D-04 1.46800391D-03-3.13853890D-01
                 4.35642111D-01-1.83363636D-01-8.05223451D-04
                -9.64328996D-02-2.88690380D-02 2.01432898D-04
                 2.77608602D-04-5.13866375D-04 8.55021874D-02
                -4.25329305D-01 3.02958136D-02 2.91871131D-04
                 1.54890762D-01-1.21186901D-01-5.47432603D-04
                -3.45960519D-04 1.44204698D-04-5.98622020D-02
 Polarizability= 1.51981898D+01-1.41932782D+00 7.65604470D+00
                -4.57812585D-03-2.74922681D-03 5.50778008D+00
 HyperPolar    = 2.15197693D+01 3.15269833D+01 3.79638519D+00
                 1.29521264D+01 2.75832109D-02 1.76912702D-02
                -4.97956879D-02-2.41713183D+00 1.02175833D+01
                 7.78729402D-02
 Quadrupole    =-7.86003856D-02-7.25587531D-01 8.04187917D-01
                -1.06929205D+00-6.22175712D-03 1.06714340D-03
 VibFq2-Diag1:  N=     12 IV=           5 MDV=   131069602 NE2=    10922466
 Full mass-weighted force constant matrix:
 Low frequencies --- -960.7145 -729.4646 -245.1833 -135.4315   -0.0006    0.0006
 Low frequencies ---    0.0015  326.3248  892.9139
 OrtVCM:  Ph=1 IPass= 1 DotMx1= 0.00D+00
 OrtVCM:  IS=    1 I=    1 IndO=    1 Dot= 1.00D+00 DotN= 1.00D+00 ElMax1= 6.10D-01 ElMax1N= 6.10D-01
 OrtVCM:  Ph=2 NNew=    0 IAdd=    2 IPass= 1 DotMx2= 0.00D+00
 OrtVCM:  IS=    1 I=    2 IndO=    2 Dot= 1.00D+00 DotN= 1.00D+00 ElMax1= 6.10D-01 ElMax1N= 6.10D-01
 OrtVCM:  Ph=2 NNew=    0 IAdd=    3 IPass= 1 DotMx2= 0.00D+00
 OrtVCM:  IS=    1 I=    3 IndO=    3 Dot= 1.00D+00 DotN= 1.00D+00 ElMax1= 6.10D-01 ElMax1N= 6.10D-01
 OrtVCM:  Ph=2 NNew=    0 IAdd=    4 IPass= 1 DotMx2= 8.33D-17
 OrtVCM:  IS=    1 I=    4 IndO=    4 Dot= 1.00D+00 DotN= 1.00D+00 ElMax1= 7.77D-01 ElMax1N= 7.77D-01
 OrtVCM:  Ph=2 NNew=    0 IAdd=    5 IPass= 1 DotMx2= 2.78D-16
 OrtVCM:  IS=    1 I=    5 IndO=    5 Dot= 1.00D+00 DotN= 1.00D+00 ElMax1= 6.96D-01 ElMax1N= 6.96D-01
 OrtVCM:  Ph=2 NNew=    0 IAdd=    6 IPass= 1 DotMx2= 5.55D-17
 OrtVCM:  IS=    1 I=    6 IndO=    6 Dot= 1.00D+00 DotN= 1.00D+00 ElMax1= 6.61D-01 ElMax1N= 6.61D-01
 OrtVCM:  Ph=1 IPass= 1 DotMx1= 6.96D-01
 OrtVCM:  Ph=1 IPass= 2 DotMx1= 3.30D-16
 OrtVCM:  IS=    1 I=    1 IndO=    7 Dot= 9.70D-01 DotN= 9.70D-01 ElMax1= 9.70D-01 ElMax1N= 9.70D-01
 OrtVCM:  Ph=2 NNew=    0 IAdd=    2 IPass= 1 DotMx2= 2.42D-02
 OrtVCM:  Ph=2 NNew=    0 IAdd=    2 IPass= 2 DotMx2= 6.57D-19
 OrtVCM:  IS=    1 I=    2 IndO=    8 Dot= 8.94D-01 DotN= 8.94D-01 ElMax1= 8.94D-01 ElMax1N= 8.94D-01
 OrtVCM:  Ph=2 NNew=    0 IAdd=    3 IPass= 1 DotMx2= 5.74D-04
 OrtVCM:  Ph=2 NNew=    0 IAdd=    3 IPass= 2 DotMx2= 8.13D-20
 OrtVCM:  IS=    1 I=    3 IndO=    9 Dot= 7.93D-01 DotN= 7.93D-01 ElMax1= 7.93D-01 ElMax1N= 7.93D-01
 OrtVCM:  Ph=2 NNew=    0 IAdd=    4 IPass= 1 DotMx2= 7.74D-02
 OrtVCM:  Ph=2 NNew=    0 IAdd=    4 IPass= 2 DotMx2= 1.13D-17
 OrtVCM:  IS=    1 I=    4 IndO=   10 Dot= 6.49D-01 DotN= 6.49D-01 ElMax1= 6.49D-01 ElMax1N= 6.49D-01
 OrtVCM:  Ph=2 NNew=    0 IAdd=    5 IPass= 1 DotMx2= 2.94D-01
 OrtVCM:  Ph=2 NNew=    0 IAdd=    5 IPass= 2 DotMx2= 1.74D-16
 OrtVCM:  IS=    1 I=    5 IndO=   11 Dot= 1.34D-01 DotN= 1.34D-01 ElMax1= 2.65D-01 ElMax1N= 2.65D-01
 OrtVCM:  Ph=2 NNew=    0 IAdd=    6 IPass= 1 DotMx2= 1.95D-01
 OrtVCM:  Ph=2 NNew=    0 IAdd=    6 IPass= 2 DotMx2= 1.83D-17
 OrtVCM:  IS=    1 I=    6 IndO=    0 Dot= 1.17D-33 DotN= 1.17D-33 ElMax1= 2.72D-17 ElMax1N= 2.72D-17
 SchOr2:  IPass= 1 Test2A= 1.00D-01 IOff=     0 NDo=     6 NNew=     5
 OrtVCM:  Ph=1 IPass= 1 DotMx1= 5.28D-01
 OrtVCM:  Ph=1 IPass= 2 DotMx1= 1.35D-16
 OrtVCM:  IS=    1 I=    1 IndO=   12 Dot= 3.88D-01 DotN= 3.88D-01 ElMax1= 3.88D-01 ElMax1N= 3.88D-01
 SchOr2:  IPass= 1 Test2A= 1.00D-01 IOff=     6 NDo=     1 NNew=     1
 VibFq2-Diag2:  N=      6 IV=           5 MDV=   131069602 NE2=    21844933
 ******    2 imaginary frequencies (negative Signs) ****** 
 Dipole derivative wrt mode   1:  3.83536D-01 -8.20759D-01  1.73715D-01
 Vibrational polarizability contributions from mode   1       0.0183572       0.0840671       0.0037659
 Dipole derivative wrt mode   2:  1.08494D-02 -2.95410D-03  8.12271D+00
 Vibrational polarizability contributions from mode   2       0.0000185       0.0000014      10.3880800
 Dipole derivative wrt mode   3: -1.99108D+00  1.83617D+00  4.72642D-03
 Vibrational polarizability contributions from mode   3       0.1344907       0.1143771       0.0000008
 Dipole derivative wrt mode   4:  7.13879D+00  7.72224D-01 -9.75123D-03
 Vibrational polarizability contributions from mode   4       0.7215752       0.0084434       0.0000013
 Dipole derivative wrt mode   5:  4.67631D+00 -1.32655D+00 -6.28528D-03
 Vibrational polarizability contributions from mode   5       0.0572019       0.0046031       0.0000001
 Dipole derivative wrt mode   6:  4.87097D-01 -3.23540D+00 -1.16387D-02
 Vibrational polarizability contributions from mode   6       0.0004350       0.0191930       0.0000002
 Diagonal vibrational polarizability:
        0.9320785       0.2306851      10.3918484
 NorSel:  MapVib=      1      2      3      4      5      6
 Harmonic frequencies (cm**-1), IR intensities (KM/Mole), Raman scattering
 activities (A**4/AMU), depolarization ratios for plane and unpolarized
 incident light, reduced masses (AMU), force constants (mDyne/A),
 and normal coordinates:
                      1                      2                      3
                      A                      A                      A
 Frequencies --   -464.3756              -413.4279               890.6549
 Red. masses --      8.1852                 1.2467                11.7891
 Frc consts  --      1.0400                 0.1256                 5.5100
 IR Inten    --      0.8509                65.9785                 7.3359
  Atom  AN      X      Y      Z        X      Y      Z        X      Y      Z
     1   1    -0.29  -0.57   0.05     0.00   0.00   0.99     0.27  -0.27   0.00
     2   7     0.16  -0.19   0.00     0.00   0.00  -0.06     0.70   0.21   0.00
     3   6     0.25   0.57  -0.01     0.00   0.00  -0.11    -0.45  -0.18   0.00
     4   8    -0.31  -0.23   0.00     0.00   0.00   0.07    -0.29  -0.03   0.00
                      4                      5                      6
                      A                      A                      A
 Frequencies --   1378.6379              3207.4883              3831.0943
 Red. masses --      1.1489                13.2003                 1.0756
 Frc consts  --      1.2866                80.0139                 9.3018
 IR Inten    --     51.5587                23.6277                10.7052
  Atom  AN      X      Y      Z        X      Y      Z        X      Y      Z
     1   1     0.77   0.64   0.00    -0.07  -0.12   0.00    -0.68   0.73   0.00
     2   7     0.00  -0.09   0.00     0.02   0.03   0.00     0.05  -0.05   0.00
     3   6    -0.01   0.03   0.00     0.64  -0.47   0.00     0.00   0.00   0.00
     4   8    -0.04   0.01   0.00    -0.49   0.34   0.00     0.00   0.00   0.00

 -------------------
 - Thermochemistry -
 -------------------
 Temperature   298.150 Kelvin.  Pressure   1.00000 Atm.
 Atom     1 has atomic number  1 and mass   1.00783
 Atom     2 has atomic number  7 and mass  14.00307
 Atom     3 has atomic number  6 and mass  12.00000
 Atom     4 has atomic number  8 and mass  15.99491
 Molecular mass:    43.00581 amu.
 Principal axes and moments of inertia in atomic units:
                           1         2         3
     Eigenvalues --    13.45082 140.76663 154.21732
           X            0.99961  -0.02783  -0.00016
           Y            0.02783   0.99961   0.00049
           Z            0.00015  -0.00049   1.00000
 This molecule is an asymmetric top.
 Rotational symmetry number  1.
 Rotational temperatures (Kelvin)      6.43930     0.61530     0.56164
 Rotational constants (GHZ):         134.17330    12.82080    11.70258
    2 imaginary frequencies ignored.
 Zero-point vibrational energy      55673.5 (Joules/Mol)
                                   13.30628 (Kcal/Mol)
 Vibrational temperatures:   1281.45  1983.55  4614.86  5512.09
          (Kelvin)
 
 Zero-point correction=                           0.021205 (Hartree/Particle)
 Thermal correction to Energy=                    0.024102
 Thermal correction to Enthalpy=                  0.025046
 Thermal correction to Gibbs Free Energy=        -0.003394
 Sum of electronic and zero-point Energies=           -165.378469
 Sum of electronic and thermal Energies=              -165.375572
 Sum of electronic and thermal Enthalpies=            -165.374628
 Sum of electronic and thermal Free Energies=         -165.403068
 
                     E (Thermal)             CV                S
                      KCal/Mol        Cal/Mol-Kelvin    Cal/Mol-Kelvin
 Total                   15.124              6.588             59.857
 Electronic               0.000              0.000              2.183
 Translational            0.889              2.981             37.203
 Rotational               0.889              2.981             20.307
 Vibrational             13.346              0.627              0.165
                       Q            Log10(Q)             Ln(Q)
 Total Bot       0.364200D+02          1.561340          3.595117
 Total V=0       0.206494D+12         11.314908         26.053539
 Vib (Bot)       0.179035D-09         -9.747063        -22.443441
 Vib (V=0)       0.101509D+01          0.006506          0.014980
 Electronic      0.300000D+01          0.477121          1.098612
 Translational   0.110852D+08          7.044745         16.221124
 Rotational      0.611697D+04          3.786536          8.718822
 Write normal modes, IRwNMS=   765 IRotNM=-1 NVibU=     6.
 
                                                                  T1
                                                             IR Spectrum
 
     3                    3                                                            1                                             
     8                    2                                                            3               8                             
     3                    0                                                            7               9                             
     1                    7                                                            9               1                             
 
     X                    X                                                            X               X                             
     X                    X                                                            X               X                             
     X                    X                                                            X               X                             
     X                    X                                                            X                                             
                          X                                                            X                                             
                          X                                                            X                                             
                          X                                                            X                                             
                          X                                                            X                                             
                          X                                                            X                                             
                                                                                       X                                             
                                                                                       X                                             
                                                                                       X                                             
                                                                                       X                                             
                                                                                       X                                             
                                                                                       X                                             
                                                                                       X                                             
                                                                                       X                                             
                                                                                       X                                             
                                                                                       X                                             
                                                                                       X                                             
 
 Forces in standard orientation:
 -------------------------------------------------------------------
 Center     Atomic                   Forces (Hartrees/Bohr)
 Number     Number              X              Y              Z
 -------------------------------------------------------------------
      1        1           0.003632230   -0.000231470   -0.000004507
      2        7           0.068173717    0.016010098    0.000006202
      3        6           0.353268301   -0.279039379    0.000497924
      4        8          -0.425074249    0.263260751   -0.000499619
 -------------------------------------------------------------------
 Cartesian Forces:  Max     0.425074249 RMS     0.195271932
 ***** Axes restored to original set *****
 Rotating derivatives, DoTrsp=F IDiff=-2 LEDeriv=    628 LFDPrp=       0 LDFDPr=       0.
 -------------------------------------------------------------------
 Center     Atomic                   Forces (Hartrees/Bohr)
 Number     Number              X              Y              Z
 -------------------------------------------------------------------
      1        1          -0.002523505   -0.000002474   -0.002622711
      2        7          -0.061104316   -0.000077705   -0.034208705
      3        6          -0.072266919   -0.001927180   -0.444337140
      4        8           0.135894739    0.002007360    0.481168557
 -------------------------------------------------------------------
 Cartesian Forces:  Max     0.481168557 RMS     0.195271932
 From PutF, contents of force:
   1    0.2622711434D-02
   2    0.7107393663D-01
   3    0.4994313833D+00
   4    0.5037907274D-02
   5    0.4737855100D-01
   6    0.4762823448D-05
 -----------------------------------------------------------------------------------------------
                       Internal Coordinate Forces (Hartree/Bohr or radian)
  Cent   Atom   N1       Length/X         N2         Alpha/Y        N3         Beta/Z          J
 -----------------------------------------------------------------------------------------------
      1  H 
      2  N        1   0.002623(     1)
      3  C        2   0.071074(     2)      1   0.005038(     4)
      4  O        3   0.499431(     3)      2   0.047379(     5)      1   0.000005(     6)     0
 -----------------------------------------------------------------------------------------------
 Internal  Forces:  Max     0.499431383 RMS     0.206865575
 Force constants in Cartesian coordinates: 
                1             2             3             4             5 
      1  0.634707D-01
      2 -0.285807D-04 -0.695440D-03
      3  0.107445D-01  0.212739D-05  0.522272D+00
      4 -0.491581D-01  0.116478D-04 -0.294292D-01  0.268344D+00
      5  0.658719D-04 -0.192745D-03  0.229016D-04  0.104857D-03 -0.209456D-01
      6  0.504251D-01 -0.689848D-04 -0.514833D+00  0.838528D-01  0.343399D-03
      7 -0.110984D-02 -0.404507D-04  0.255591D-01 -0.156296D+00  0.222510D-03
      8 -0.126757D-04  0.588359D-03 -0.485807D-04  0.511334D-03  0.117173D-01
      9 -0.589665D-01  0.640212D-04 -0.105547D-01  0.106830D+00 -0.285575D-03
     10 -0.132027D-01  0.573836D-04 -0.687442D-02 -0.628902D-01 -0.393239D-03
     11 -0.246154D-04  0.299826D-03  0.235517D-04 -0.627839D-03  0.942103D-02
     12 -0.220308D-02  0.283612D-05  0.311551D-02 -0.161253D+00 -0.807265D-04
                6             7             8             9            10 
      6  0.631155D+00
      7 -0.312034D-01  0.100343D+00
      8 -0.257844D-04  0.196182D-02 -0.245904D+00
      9 -0.594108D-01  0.517674D+00  0.118867D-01  0.258339D+01
     10 -0.103074D+00  0.570623D-01 -0.246047D-02 -0.565537D+00  0.190306D-01
     11 -0.248630D-03 -0.214387D-02  0.233598D+00 -0.116651D-01  0.279633D-02
     12 -0.569112D-01 -0.512030D+00 -0.118123D-01 -0.251343D+01  0.675486D+00
               11            12 
     11 -0.243319D+00
     12  0.118902D-01  0.256722D+01
 FCInt: Cartesian first derivatives: 
                 1             2             3             4 
      1  -0.252350D-02 -0.611043D-01 -0.722669D-01  0.135895D+00
      2  -0.247432D-05 -0.777053D-04 -0.192718D-02  0.200736D-02
      3  -0.262271D-02 -0.342087D-01 -0.444337D+00  0.481169D+00
 FCInt: Cartesian force constants: 
                1             2             3             4             5 
      1  0.634707D-01
      2 -0.285807D-04 -0.695440D-03
      3  0.107445D-01  0.212739D-05  0.522272D+00
      4 -0.491581D-01  0.116478D-04 -0.294292D-01  0.268344D+00
      5  0.658719D-04 -0.192745D-03  0.229016D-04  0.104857D-03 -0.209456D-01
      6  0.504251D-01 -0.689848D-04 -0.514833D+00  0.838528D-01  0.343399D-03
      7 -0.110984D-02 -0.404507D-04  0.255591D-01 -0.156296D+00  0.222510D-03
      8 -0.126757D-04  0.588359D-03 -0.485807D-04  0.511334D-03  0.117173D-01
      9 -0.589665D-01  0.640212D-04 -0.105547D-01  0.106830D+00 -0.285575D-03
     10 -0.132027D-01  0.573836D-04 -0.687442D-02 -0.628902D-01 -0.393239D-03
     11 -0.246154D-04  0.299826D-03  0.235517D-04 -0.627839D-03  0.942103D-02
     12 -0.220308D-02  0.283612D-05  0.311551D-02 -0.161253D+00 -0.807265D-04
                6             7             8             9            10 
      6  0.631155D+00
      7 -0.312034D-01  0.100343D+00
      8 -0.257844D-04  0.196182D-02 -0.245904D+00
      9 -0.594108D-01  0.517674D+00  0.118867D-01  0.258339D+01
     10 -0.103074D+00  0.570623D-01 -0.246047D-02 -0.565537D+00  0.190306D-01
     11 -0.248630D-03 -0.214387D-02  0.233598D+00 -0.116651D-01  0.279633D-02
     12 -0.569112D-01 -0.512030D+00 -0.118123D-01 -0.251343D+01  0.675486D+00
               11            12 
     11 -0.243319D+00
     12  0.118902D-01  0.256722D+01
 Internal force constants: 
                1             2             3             4             5 
      1  0.522272D+00
      2 -0.160707D-01  0.284565D+00
      3 -0.148271D-02  0.190520D+00  0.273452D+01
      4  0.189268D-01  0.596814D-01  0.102369D-01  0.258204D+00
      5  0.147785D-01  0.121570D+00  0.681642D-01  0.492928D-01  0.406258D+00
      6  0.170747D-05 -0.653036D-04 -0.326859D-04 -0.108634D-03 -0.209983D-03
                6 
      6  0.101567D-02
 Frcnst in PutFF: 
                1             2             3             4             5 
      1  0.522272D+00
      2 -0.160707D-01  0.284565D+00
      3 -0.148271D-02  0.190520D+00  0.273452D+01
      4  0.189268D-01  0.596814D-01  0.102369D-01  0.258204D+00
      5  0.147785D-01  0.121570D+00  0.681642D-01  0.492928D-01  0.406258D+00
      6  0.170747D-05 -0.653036D-04 -0.326859D-04 -0.108634D-03 -0.209983D-03
                6 
      6  0.101567D-02
 Force constants in internal coordinates: 
                1             2             3             4             5 
      1  0.522272D+00
      2 -0.160707D-01  0.284565D+00
      3 -0.148271D-02  0.190520D+00  0.273452D+01
      4  0.189268D-01  0.596814D-01  0.102369D-01  0.258204D+00
      5  0.147785D-01  0.121570D+00  0.681642D-01  0.492928D-01  0.406258D+00
      6  0.170747D-05 -0.653036D-04 -0.326859D-04 -0.108634D-03 -0.209983D-03
                6 
      6  0.101567D-02
 Final forces over variables, Energy=-1.65399674D+02:
  2.62271143D-03 7.10739366D-02 4.99431383D-01 5.03790727D-03
  4.73785510D-02 4.76282345D-06
 Leave Link  716 at Fri Apr 15 18:53:58 2022, MaxMem=   131072000 cpu:               0.0 elap:               0.0
 (Enter C:\G16W\l103.exe)

 GradGradGradGradGradGradGradGradGradGradGradGradGradGradGradGradGradGrad
 Berny optimization.
 Search for a local minimum.
 Step number   1 out of a maximum of    2
 All quantities printed in internal units (Hartrees-Bohrs-Radians)
 Second derivative matrix not updated -- analytic derivatives used.
 The second derivative matrix:
                          B1        B2        B3        A1        A2
           B1           0.52227
           B2          -0.01607   0.28457
           B3          -0.00148   0.19052   2.73452
           A1           0.01893   0.05968   0.01024   0.25820
           A2           0.01478   0.12157   0.06816   0.04929   0.40626
           D1           0.00000  -0.00007  -0.00003  -0.00011  -0.00021
                          D1
           D1           0.00102
 ITU=  0
     Eigenvalues ---    0.00102   0.18701   0.24974   0.48997   0.52720
     Eigenvalues ---    2.75192
 Angle between quadratic step and forces=  28.72 degrees.
 Linear search not attempted -- first point.
 Variable       Old X    -DE/DX   Delta X   Delta X   Delta X     New X
                                 (Linear)    (Quad)   (Total)
    B1        1.99639   0.00262   0.00000   0.00842   0.00842   2.00481
    B2        2.78765   0.07107   0.00000   0.11575   0.11575   2.90341
    B3        1.99698   0.49943   0.00000   0.17329   0.17329   2.17026
    A1        1.83690   0.00504   0.00000  -0.02535  -0.02535   1.81154
    A2        2.06468   0.04738   0.00000   0.05569   0.05569   2.12037
    D1        3.13690   0.00000   0.00000   0.02650   0.02650   3.16340
         Item               Value     Threshold  Converged?
 Maximum Force            0.499431     0.000450     NO 
 RMS     Force            0.206866     0.000300     NO 
 Maximum Displacement     0.173286     0.001800     NO 
 RMS     Displacement     0.089390     0.001200     NO 
 Predicted change in Energy=-4.865229D-02
                       ----------------------------
                       ! Non-Optimized Parameters !
                       ! (Angstroms and Degrees)  !
 ----------------------                            ----------------------
 !      Name          Value   Derivative information (Atomic Units)     !
 ------------------------------------------------------------------------
 !       B1          1.0609   -DE/DX =    0.0026                        !
 !       B2          1.5364   -DE/DX =    0.0711                        !
 !       B3          1.1485   -DE/DX =    0.4994                        !
 !       A1        103.7938   -DE/DX =    0.005                         !
 !       A2        121.4884   -DE/DX =    0.0474                        !
 !       D1        181.2494   -DE/DX =    0.0                           !
 ------------------------------------------------------------------------
 GradGradGradGradGradGradGradGradGradGradGradGradGradGradGradGradGradGrad

 Leave Link  103 at Fri Apr 15 18:53:58 2022, MaxMem=   131072000 cpu:               0.0 elap:               0.0
 (Enter C:\G16W\l9999.exe)

 ----------------------------------------------------------------------

 Electric dipole moment (input orientation):
 (Debye = 10**-18 statcoulomb cm , SI units = C m)
                  (au)            (Debye)         (10**-30 SI)
   Tot        0.674364D+00      0.171406D+01      0.571750D+01
   x          0.419666D-01      0.106668D+00      0.355808D+00
   y         -0.493769D-03     -0.125504D-02     -0.418635D-02
   z         -0.673057D+00     -0.171074D+01     -0.570641D+01

 Dipole polarizability, Alpha (input orientation).
 (esu units = cm**3 , SI units = C**2 m**2 J**-1)
 Alpha(0;0):
               (au)            (10**-24 esu)      (10**-40 SI)
   iso        0.945400D+01      0.140094D+01      0.155875D+01
   aniso      0.915123D+01      0.135607D+01      0.150883D+01
   xx         0.103475D+02      0.153335D+01      0.170608D+01
   yx         0.433376D-02      0.642197D-03      0.714540D-03
   yy         0.550784D+01      0.816178D+00      0.908121D+00
   zx         0.388202D+01      0.575256D+00      0.640059D+00
   zy         0.195468D-01      0.289654D-02      0.322283D-02
   zz         0.125066D+02      0.185329D+01      0.206206D+01

 First dipole hyperpolarizability, Beta (input orientation).
 ||, _|_  parallel and perpendicular components, (z) with respect to z axis,
 vector components x,y,z.  Values do not include the 1/n! factor of 1/2.
 (esu units = statvolt**-1 cm**4 , SI units = C**3 m**3 J**-2)
 Beta(0;0,0):
               (au)            (10**-30 esu)      (10**-50 SI)
   || (z)    -0.149374D+02     -0.129048D+00     -0.478948D-01
   _|_(z)    -0.497914D+01     -0.430159D-01     -0.159649D-01
   x          0.161452D+03      0.139482D+01      0.517673D+00
   y         -0.193692D+00     -0.167335D-02     -0.621046D-03
   z         -0.746871D+02     -0.645239D+00     -0.239474D+00
   ||         0.355780D+02      0.307366D+00      0.114076D+00
   xxx        0.512074D+02      0.442392D+00      0.164190D+00
   xxy        0.163691D-01      0.141416D-03      0.524853D-04
   yxy        0.511420D+01      0.441827D-01      0.163980D-01
   yyy       -0.243648D-01     -0.210493D-03     -0.781225D-04
   xxz        0.104687D+02      0.904414D-01      0.335664D-01
   yxz       -0.202029D-02     -0.174537D-04     -0.647777D-05
   yyz       -0.917034D+01     -0.792246D-01     -0.294034D-01
   zxz       -0.250439D+01     -0.216360D-01     -0.802999D-02
   zyz       -0.565682D-01     -0.488705D-03     -0.181378D-03
   zzz       -0.261941D+02     -0.226296D+00     -0.839877D-01

 ----------------------------------------------------------------------

 Dipole orientation:
     1          0.00000000          0.00000000          0.00000000
     7          0.12423834          0.00146176         -1.99252356
     6          2.85418500          0.00193718         -2.55679848
     8          3.42533491         -0.00489691         -4.47034304

 Electric dipole moment (dipole orientation):
 (Debye = 10**-18 statcoulomb cm , SI units = C m)
                  (au)            (Debye)         (10**-30 SI)
   Tot        0.674364D+00      0.171406D+01      0.571750D+01
   x          0.000000D+00      0.000000D+00      0.000000D+00
   y          0.000000D+00      0.000000D+00      0.000000D+00
   z          0.674364D+00      0.171406D+01      0.571750D+01

 Dipole polarizability, Alpha (dipole orientation).
 (esu units = cm**3 , SI units = C**2 m**2 J**-1)
 Alpha(0;0):
               (au)            (10**-24 esu)      (10**-40 SI)
   iso        0.945400D+01      0.140094D+01      0.155875D+01
   aniso      0.915123D+01      0.135607D+01      0.150883D+01
   xx         0.108381D+02      0.160605D+01      0.178697D+01
   yx        -0.250164D-02     -0.370705D-03     -0.412465D-03
   yy         0.550782D+01      0.816174D+00      0.908116D+00
   zx        -0.398606D+01     -0.590673D+00     -0.657212D+00
   zy         0.143830D-01      0.213134D-02      0.237144D-02
   zz         0.120161D+02      0.178060D+01      0.198118D+01

 First dipole hyperpolarizability, Beta (dipole orientation).
 ||, _|_  parallel and perpendicular components, (z) with respect to z axis,
 vector components x,y,z.  Values do not include the 1/n! factor of 1/2.
 (esu units = statvolt**-1 cm**4 , SI units = C**3 m**3 J**-2)
 Beta(0;0,0):
               (au)            (10**-30 esu)      (10**-50 SI)
   || (z)     0.169180D+02      0.146158D+00      0.542451D-01
   _|_(z)     0.563932D+01      0.487194D-01      0.180817D-01
   x          0.156491D+03      0.135196D+01      0.501766D+00
   y          0.135324D+00      0.116909D-02      0.433898D-03
   z          0.845898D+02      0.730790D+00      0.271226D+00
   ||         0.355780D+02      0.307366D+00      0.114076D+00
   xxx        0.528218D+02      0.456339D+00      0.169366D+00
   xxy       -0.990172D-02     -0.855432D-04     -0.317485D-04
   yxy        0.453361D+01      0.391668D-01      0.145364D-01
   yyy        0.387147D-02      0.334465D-04      0.124133D-04
   xxz       -0.674152D+01     -0.582415D-01     -0.216158D-01
   yxz        0.216345D-03      0.186905D-05      0.693681D-06
   yyz        0.947076D+01      0.818200D-01      0.303667D-01
   zxz       -0.519175D+01     -0.448527D-01     -0.166466D-01
   zyz        0.511383D-01      0.441795D-03      0.163968D-03
   zzz        0.254674D+02      0.220018D+00      0.816576D-01

 ----------------------------------------------------------------------

 Test job not archived.
 1|1|UNPC-DESKTOP-RNC6JTU|Freq|UHF|STO-3G|C1H1N1O1(3)|BNULK|15-Apr-2022
 |1||#p sto-3g scf=maxcycle=999 freq=noraman IOP(7/33=1) hf||T1||0,3|H|
 N,1,B1|C,2,B2,1,A1|O,3,B3,2,A2,1,D1,0||B1=1.056446|B2=1.475163|B3=1.05
 6754|A1=105.246373|A2=118.297427|D1=179.731229||Version=EM64W-G16RevA.
 03|State=3-A|HF=-165.3996737|S2=2.03334|S2-1=0.|S2A=2.000525|RMSD=1.66
 0e-009|RMSF=1.953e-001|ZeroPoint=0.0212049|Thermal=0.0241015|Dipole=0.
 0419666,-0.0004938,-0.6730568|DipoleDeriv=0.1866289,0.0000674,0.115571
 6,0.0000319,0.2882185,-0.0000392,0.0558292,0.0000543,-0.0849549,-0.076
 7437,-0.0001811,-0.3053963,0.0002463,-0.3138585,0.0001291,-0.0341281,0
 .0002067,0.1148128,0.0846203,0.0004987,0.2872049,0.0005253,0.0855037,0
 .0011552,0.2002728,-0.0000432,0.3221513,-0.1945055,-0.000385,-0.097380
 3,-0.0008035,-0.0598637,-0.0012451,-0.2219739,-0.0002178,-0.3520092|Po
 lar=10.3475488,0.0043338,5.5078422,3.8820194,0.0195468,12.5066235|Hype
 rPolar=51.2074391,0.0163691,5.114201,-0.0243648,10.4687042,-0.0020203,
 -9.1703421,-2.5043918,-0.0565682,-26.1940684|Quadrupole=-1.438516,0.80
 41552,0.6343608,-0.0009257,0.4169812,-0.005842|PG=C01 [X(C1H1N1O1)]|NI
 mag=2||0.06347070,-0.00002858,-0.00069544,0.01074454,0.00000213,0.5222
 7171,-0.04915812,0.00001165,-0.02942917,0.26834418,0.00006587,-0.00019
 274,0.00002290,0.00010486,-0.02094557,0.05042507,-0.00006898,-0.514832
 52,0.08385280,0.00034340,0.63115453,-0.00110984,-0.00004045,0.02555905
 ,-0.15629588,0.00022251,-0.03120340,0.10034338,-0.00001268,0.00058836,
 -0.00004858,0.00051133,0.01171728,-0.00002578,0.00196182,-0.24590352,-
 0.05896654,0.00006402,-0.01055470,0.10682954,-0.00028557,-0.05941080,0
 .51767414,0.01188669,2.58339086,-0.01320275,0.00005738,-0.00687442,-0.
 06289017,-0.00039324,-0.10307447,0.05706234,-0.00246047,-0.56553714,0.
 01903058,-0.00002462,0.00029983,0.00002355,-0.00062784,0.00942103,-0.0
 0024863,-0.00214387,0.23359788,-0.01166513,0.00279633,-0.24331874,-0.0
 0220308,0.00000284,0.00311551,-0.16125317,-0.00008073,-0.05691121,-0.5
 1202979,-0.01181232,-2.51342535,0.67548603,0.01189021,2.56722105||0.00
 252350,0.00000247,0.00262271,0.06110432,0.00007771,0.03420871,0.072266
 92,0.00192718,0.44433714,-0.13589474,-0.00200736,-0.48116856|||@


 SOME PHYSICISTS WOULD PREFER TO COME BACK TO THE IDEA OF AN OBJECTIVE
 REAL WORLD WHOSE SMALLEST PARTS EXIST OBJECTIVELY IN THE SAME SENSE AS
 STONES OR TREES EXIST INDEPENDENTLY OF WHETHER WE OBSERVE THEM.
 THIS, HOWEVER, IS IMPOSSIBLE.  -- WERNER HEISENBERG
 Job cpu time:       0 days  0 hours  0 minutes  2.0 seconds.
 Elapsed time:       0 days  0 hours  0 minutes  1.1 seconds.
 File lengths (MBytes):  RWF=      6 Int=      0 D2E=      0 Chk=      1 Scr=      1
 Normal termination of Gaussian 16 at Fri Apr 15 18:53:58 2022.
