 Entering Gaussian System, Link 0=g16
 Input=State1_2.gjf
 Output=State1_2.out
 Initial command:
 C:\G16W\l1.exe ".\Gau-2404.inp" "State1_2.out" /scrdir=".\"
 Entering Link 1 = C:\G16W\l1.exe PID=      7944.
  
 Copyright (c) 1988,1990,1992,1993,1995,1998,2003,2009,2016,
            Gaussian, Inc.  All Rights Reserved.
  
 This is part of the Gaussian(R) 16 program.  It is based on
 the Gaussian(R) 09 system (copyright 2009, Gaussian, Inc.),
 the Gaussian(R) 03 system (copyright 2003, Gaussian, Inc.),
 the Gaussian(R) 98 system (copyright 1998, Gaussian, Inc.),
 the Gaussian(R) 94 system (copyright 1995, Gaussian, Inc.),
 the Gaussian 92(TM) system (copyright 1992, Gaussian, Inc.),
 the Gaussian 90(TM) system (copyright 1990, Gaussian, Inc.),
 the Gaussian 88(TM) system (copyright 1988, Gaussian, Inc.),
 the Gaussian 86(TM) system (copyright 1986, Carnegie Mellon
 University), and the Gaussian 82(TM) system (copyright 1983,
 Carnegie Mellon University). Gaussian is a federally registered
 trademark of Gaussian, Inc.
  
 This software contains proprietary and confidential information,
 including trade secrets, belonging to Gaussian, Inc.
  
 This software is provided under written license and may be
 used, copied, transmitted, or stored only in accord with that
 written license.
  
 The following legend is applicable only to US Government
 contracts under FAR:
  
                    RESTRICTED RIGHTS LEGEND
  
 Use, reproduction and disclosure by the US Government is
 subject to restrictions as set forth in subparagraphs (a)
 and (c) of the Commercial Computer Software - Restricted
 Rights clause in FAR 52.227-19.
  
 Gaussian, Inc.
 340 Quinnipiac St., Bldg. 40, Wallingford CT 06492
  
  
 ---------------------------------------------------------------
 Warning -- This program may not be used in any manner that
 competes with the business of Gaussian, Inc. or will provide
 assistance to any competitor of Gaussian, Inc.  The licensee
 of this program is prohibited from giving any competitor of
 Gaussian, Inc. access to this program.  By using this program,
 the user acknowledges that Gaussian, Inc. is engaged in the
 business of creating and licensing software in the field of
 computational chemistry and represents and warrants to the
 licensee that it is not a competitor of Gaussian, Inc. and that
 it will not use this program in any manner prohibited above.
 ---------------------------------------------------------------
  

 Cite this work as:
 Gaussian 16, Revision A.03,
 M. J. Frisch, G. W. Trucks, H. B. Schlegel, G. E. Scuseria, 
 M. A. Robb, J. R. Cheeseman, G. Scalmani, V. Barone, 
 G. A. Petersson, H. Nakatsuji, X. Li, M. Caricato, A. V. Marenich, 
 J. Bloino, B. G. Janesko, R. Gomperts, B. Mennucci, H. P. Hratchian, 
 J. V. Ortiz, A. F. Izmaylov, J. L. Sonnenberg, D. Williams-Young, 
 F. Ding, F. Lipparini, F. Egidi, J. Goings, B. Peng, A. Petrone, 
 T. Henderson, D. Ranasinghe, V. G. Zakrzewski, J. Gao, N. Rega, 
 G. Zheng, W. Liang, M. Hada, M. Ehara, K. Toyota, R. Fukuda, 
 J. Hasegawa, M. Ishida, T. Nakajima, Y. Honda, O. Kitao, H. Nakai, 
 T. Vreven, K. Throssell, J. A. Montgomery, Jr., J. E. Peralta, 
 F. Ogliaro, M. J. Bearpark, J. J. Heyd, E. N. Brothers, K. N. Kudin, 
 V. N. Staroverov, T. A. Keith, R. Kobayashi, J. Normand, 
 K. Raghavachari, A. P. Rendell, J. C. Burant, S. S. Iyengar, 
 J. Tomasi, M. Cossi, J. M. Millam, M. Klene, C. Adamo, R. Cammi, 
 J. W. Ochterski, R. L. Martin, K. Morokuma, O. Farkas, 
 J. B. Foresman, and D. J. Fox, Gaussian, Inc., Wallingford CT, 2016.
 
 ******************************************
 Gaussian 16:  EM64W-G16RevA.03 17-Dec-2016
                15-Apr-2022 
 ******************************************
 %mem=1000mb
 %chk=LiuKun1.chk
 ------------------------------------------------------
 #p sto-3g scf=maxcycle=999 freq=noraman IOP(7/33=1) hf
 ------------------------------------------------------
 1/10=4,30=1,38=1/1,3;
 2/12=2,17=6,18=5,40=1/2;
 3/6=3,11=9,25=1,30=1,71=2,140=1/1,2,3;
 4//1;
 5/5=2,7=999,38=5,98=1/2;
 8/6=4,10=90,11=11/1;
 11/6=1,8=1,9=11,15=111,16=1/1,2,10;
 10/6=1/2;
 6/7=2,8=2,9=2,10=2,28=1/1;
 7/8=1,10=1,25=1,33=1/1,2,3,16;
 1/10=4,30=1/3;
 99//99;
 Leave Link    1 at Fri Apr 15 18:53:58 2022, MaxMem=   131072000 cpu:               0.0 elap:               0.0
 (Enter C:\G16W\l101.exe)
 --
 T1
 --
 Symbolic Z-matrix:
 Charge =  0 Multiplicity = 1
 H
 N                    1    B1
 C                    2    B2       1    A1
 O                    3    B3       2    A2       1    D1       0
       Variables:
  B1                    1.05048                  
  B2                    1.40922                  
  B3                    1.14823                  
  A1                  106.07776                  
  A2                  134.00473                  
  D1                  192.67597                  
 
 ITRead=  0  0  0  0
 MicOpt= -1 -1 -1 -1
 NAtoms=      4 NQM=        4 NQMF=       0 NMMI=      0 NMMIF=      0
                NMic=       0 NMicF=      0.
                    Isotopes and Nuclear Properties:
 (Nuclear quadrupole moments (NQMom) in fm**2, nuclear magnetic moments (NMagM)
  in nuclear magnetons)

  Atom         1           2           3           4
 IAtWgt=           1          14          12          16
 AtmWgt=   1.0078250  14.0030740  12.0000000  15.9949146
 NucSpn=           1           2           0           0
 AtZEff=   0.0000000   0.0000000   0.0000000   0.0000000
 NQMom=    0.0000000   2.0440000   0.0000000   0.0000000
 NMagM=    2.7928460   0.4037610   0.0000000   0.0000000
 AtZNuc=   1.0000000   7.0000000   6.0000000   8.0000000
 Leave Link  101 at Fri Apr 15 18:53:58 2022, MaxMem=   131072000 cpu:               0.0 elap:               0.1
 (Enter C:\G16W\l103.exe)

 GradGradGradGradGradGradGradGradGradGradGradGradGradGradGradGradGradGrad
 Berny optimization.
 Initialization pass.
                       ----------------------------
                       !    Initial Parameters    !
                       ! (Angstroms and Degrees)  !
 ----------------------                            ----------------------
 !      Name          Value   Derivative information (Atomic Units)     !
 ------------------------------------------------------------------------
 !       B1          1.0505   calculate D2E/DX2 analytically            !
 !       B2          1.4092   calculate D2E/DX2 analytically            !
 !       B3          1.1482   calculate D2E/DX2 analytically            !
 !       A1        106.0778   calculate D2E/DX2 analytically            !
 !       A2        134.0047   calculate D2E/DX2 analytically            !
 !       D1        192.676    calculate D2E/DX2 analytically            !
 ------------------------------------------------------------------------
 Trust Radius=3.00D-01 FncErr=1.00D-07 GrdErr=1.00D-07 EigMax=2.50D+02 EigMin=1.00D-04
 Number of steps in this run=      2 maximum allowed number of steps=      2.
 GradGradGradGradGradGradGradGradGradGradGradGradGradGradGradGradGradGrad

 Leave Link  103 at Fri Apr 15 18:53:58 2022, MaxMem=   131072000 cpu:               0.0 elap:               0.0
 (Enter C:\G16W\l202.exe)
                          Input orientation:                          
 ---------------------------------------------------------------------
 Center     Atomic      Atomic             Coordinates (Angstroms)
 Number     Number       Type             X           Y           Z
 ---------------------------------------------------------------------
      1          1           0        0.000000    0.000000    0.000000
      2          7           0        0.000000    0.000000    1.050484
      3          6           0        1.354097    0.000000    1.440755
      4          8           0        1.897442   -0.181234    2.435929
 ---------------------------------------------------------------------
                    Distance matrix (angstroms):
                    1          2          3          4
     1  H    0.000000
     2  N    1.050484   0.000000
     3  C    1.977208   1.409216   0.000000
     4  O    3.093038   2.356393   1.148234   0.000000
 Stoichiometry    CHNO
 Framework group  C1[X(CHNO)]
 Deg. of freedom     6
 Full point group                 C1      NOp   1
 Largest Abelian subgroup         C1      NOp   1
 Largest concise Abelian subgroup C1      NOp   1
                         Standard orientation:                         
 ---------------------------------------------------------------------
 Center     Atomic      Atomic             Coordinates (Angstroms)
 Number     Number       Type             X           Y           Z
 ---------------------------------------------------------------------
      1          1           0        1.838793    0.574380    0.130446
      2          7           0        1.178754   -0.230762   -0.009598
      3          6           0       -0.115578    0.325874   -0.036979
      4          8           0       -1.174575   -0.114286    0.019827
 ---------------------------------------------------------------------
 Rotational constants (GHZ):         196.9377316          11.2106586          10.6232474
 Leave Link  202 at Fri Apr 15 18:53:58 2022, MaxMem=   131072000 cpu:               0.0 elap:               0.0
 (Enter C:\G16W\l301.exe)
 Standard basis: STO-3G (5D, 7F)
 Ernie: Thresh=  0.10000D-02 Tol=  0.10000D-05 Strict=F.
 There are    16 symmetry adapted cartesian basis functions of A   symmetry.
 There are    16 symmetry adapted basis functions of A   symmetry.
    16 basis functions,    48 primitive gaussians,    16 cartesian basis functions
    11 alpha electrons       11 beta electrons
       nuclear repulsion energy        56.9695746602 Hartrees.
 IExCor=    0 DFT=F Ex=HF Corr=None ExCW=0 ScaHFX=  1.000000
 ScaDFX=  1.000000  1.000000  1.000000  1.000000 ScalE2=  1.000000  1.000000
 IRadAn=      5 IRanWt=     -1 IRanGd=            0 ICorTp=0 IEmpDi=  4
 NAtoms=    4 NActive=    4 NUniq=    4 SFac= 1.00D+00 NAtFMM=   60 NAOKFM=F Big=F
 Integral buffers will be    131072 words long.
 Raffenetti 1 integral format.
 Two-electron integral symmetry is turned on.
 Leave Link  301 at Fri Apr 15 18:53:58 2022, MaxMem=   131072000 cpu:               0.0 elap:               0.2
 (Enter C:\G16W\l302.exe)
 NPDir=0 NMtPBC=     1 NCelOv=     1 NCel=       1 NClECP=     1 NCelD=      1
         NCelK=      1 NCelE2=     1 NClLst=     1 CellRange=     0.0.
 One-electron integrals computed using PRISM.
 One-electron integral symmetry used in STVInt
 NBasis=    16 RedAO= T EigKep=  2.12D-01  NBF=    16
 NBsUse=    16 1.00D-06 EigRej= -1.00D+00 NBFU=    16
 Leave Link  302 at Fri Apr 15 18:53:59 2022, MaxMem=   131072000 cpu:               0.0 elap:               0.1
 (Enter C:\G16W\l303.exe)
 DipDrv:  MaxL=1.
 Leave Link  303 at Fri Apr 15 18:53:59 2022, MaxMem=   131072000 cpu:               0.0 elap:               0.0
 (Enter C:\G16W\l401.exe)
 ExpMin= 1.69D-01 ExpMax= 1.31D+02 ExpMxC= 1.31D+02 IAcc=3 IRadAn=         5 AccDes= 0.00D+00
 Harris functional with IExCor=  205 and IRadAn=       5 diagonalized for initial guess.
 HarFok:  IExCor=  205 AccDes= 0.00D+00 IRadAn=         5 IDoV= 1 UseB2=F ITyADJ=14
 ICtDFT=  3500011 ScaDFX=  1.000000  1.000000  1.000000  1.000000
 FoFCou: FMM=F IPFlag=           0 FMFlag=      100000 FMFlg1=           0
         NFxFlg=           0 DoJE=T BraDBF=F KetDBF=T FulRan=T
         wScrn=  0.000000 ICntrl=       500 IOpCl=  0 I1Cent=   200000004 NGrid=           0
         NMat0=    1 NMatS0=      1 NMatT0=    0 NMatD0=    1 NMtDS0=    0 NMtDT0=    0
 Petite list used in FoFCou.
 Harris En= -165.494958357440    
 JPrj=0 DoOrth=F DoCkMO=F.
 Leave Link  401 at Fri Apr 15 18:53:59 2022, MaxMem=   131072000 cpu:               0.0 elap:               0.2
 (Enter C:\G16W\l502.exe)
 Keep R1 ints in memory in canonical form, NReq=814141.
 FoFCou: FMM=F IPFlag=           0 FMFlag=           0 FMFlg1=           0
         NFxFlg=           0 DoJE=F BraDBF=F KetDBF=F FulRan=T
         wScrn=  0.000000 ICntrl=       600 IOpCl=  0 I1Cent=           0 NGrid=           0
         NMat0=    1 NMatS0=    136 NMatT0=    0 NMatD0=    1 NMtDS0=    0 NMtDT0=    0
 Symmetry not used in FoFCou.
 Two-electron integral symmetry not used.
 Closed shell SCF:
 Using DIIS extrapolation, IDIIS=  1040.
 NGot=   131072000 LenX=   131061257 LenY=   131060375
 Requested convergence on RMS density matrix=1.00D-08 within 999 cycles.
 Requested convergence on MAX density matrix=1.00D-06.
 Requested convergence on             energy=1.00D-06.
 No special actions if energy rises.

 Cycle   1  Pass 1  IDiag  1:
 E= -165.395167470646    
 DIIS: error= 4.94D-02 at cycle   1 NSaved=   1.
 NSaved= 1 IEnMin= 1 EnMin= -165.395167470646     IErMin= 1 ErrMin= 4.94D-02
 ErrMax= 4.94D-02  0.00D+00 EMaxC= 1.00D-01 BMatC= 5.32D-02 BMatP= 5.32D-02
 IDIUse=3 WtCom= 5.06D-01 WtEn= 4.94D-01
 Coeff-Com:  0.100D+01
 Coeff-En:   0.100D+01
 Coeff:      0.100D+01
 Gap=     0.380 Goal=   None    Shift=    0.000
 GapD=    0.380 DampG=1.000 DampE=0.500 DampFc=0.5000 IDamp=-1.
 Damping current iteration by 5.00D-01
 RMSDP=2.46D-02 MaxDP=1.39D-01              OVMax= 0.00D+00

 Cycle   2  Pass 1  IDiag  1:
 E= -165.421095954288     Delta-E=       -0.025928483642 Rises=F Damp=T
 DIIS: error= 1.63D-02 at cycle   2 NSaved=   2.
 NSaved= 2 IEnMin= 2 EnMin= -165.421095954288     IErMin= 2 ErrMin= 1.63D-02
 ErrMax= 1.63D-02  0.00D+00 EMaxC= 1.00D-01 BMatC= 7.61D-03 BMatP= 5.32D-02
 IDIUse=3 WtCom= 8.37D-01 WtEn= 1.63D-01
 Coeff-Com: -0.314D+00 0.131D+01
 Coeff-En:   0.000D+00 0.100D+01
 Coeff:     -0.263D+00 0.126D+01
 Gap=     0.482 Goal=   None    Shift=    0.000
 RMSDP=7.13D-03 MaxDP=3.16D-02 DE=-2.59D-02 OVMax= 0.00D+00

 Cycle   3  Pass 1  IDiag  1:
 E= -165.448484537103     Delta-E=       -0.027388582815 Rises=F Damp=F
 DIIS: error= 6.88D-03 at cycle   3 NSaved=   3.
 NSaved= 3 IEnMin= 3 EnMin= -165.448484537103     IErMin= 3 ErrMin= 6.88D-03
 ErrMax= 6.88D-03  0.00D+00 EMaxC= 1.00D-01 BMatC= 1.13D-03 BMatP= 7.61D-03
 IDIUse=3 WtCom= 9.31D-01 WtEn= 6.88D-02
 Coeff-Com: -0.158D+00 0.238D+00 0.920D+00
 Coeff-En:   0.000D+00 0.000D+00 0.100D+01
 Coeff:     -0.147D+00 0.222D+00 0.925D+00
 Gap=     0.482 Goal=   None    Shift=    0.000
 RMSDP=3.37D-03 MaxDP=1.92D-02 DE=-2.74D-02 OVMax= 0.00D+00

 Cycle   4  Pass 1  IDiag  1:
 E= -165.450346189200     Delta-E=       -0.001861652097 Rises=F Damp=F
 DIIS: error= 2.80D-03 at cycle   4 NSaved=   4.
 NSaved= 4 IEnMin= 4 EnMin= -165.450346189200     IErMin= 4 ErrMin= 2.80D-03
 ErrMax= 2.80D-03  0.00D+00 EMaxC= 1.00D-01 BMatC= 1.87D-04 BMatP= 1.13D-03
 IDIUse=3 WtCom= 9.72D-01 WtEn= 2.80D-02
 Coeff-Com: -0.372D-01 0.251D-03 0.223D+00 0.814D+00
 Coeff-En:   0.000D+00 0.000D+00 0.000D+00 0.100D+01
 Coeff:     -0.361D-01 0.244D-03 0.216D+00 0.820D+00
 Gap=     0.485 Goal=   None    Shift=    0.000
 RMSDP=1.59D-03 MaxDP=8.52D-03 DE=-1.86D-03 OVMax= 0.00D+00

 Cycle   5  Pass 1  IDiag  1:
 E= -165.450731402005     Delta-E=       -0.000385212805 Rises=F Damp=F
 DIIS: error= 1.85D-03 at cycle   5 NSaved=   5.
 NSaved= 5 IEnMin= 5 EnMin= -165.450731402005     IErMin= 5 ErrMin= 1.85D-03
 ErrMax= 1.85D-03  0.00D+00 EMaxC= 1.00D-01 BMatC= 4.41D-05 BMatP= 1.87D-04
 IDIUse=3 WtCom= 9.82D-01 WtEn= 1.85D-02
 Coeff-Com:  0.402D-01-0.543D-01-0.325D+00 0.291D-02 0.134D+01
 Coeff-En:   0.000D+00 0.000D+00 0.000D+00 0.000D+00 0.100D+01
 Coeff:      0.395D-01-0.533D-01-0.319D+00 0.286D-02 0.133D+01
 Gap=     0.488 Goal=   None    Shift=    0.000
 RMSDP=1.47D-03 MaxDP=7.75D-03 DE=-3.85D-04 OVMax= 0.00D+00

 Cycle   6  Pass 1  IDiag  1:
 E= -165.450910564444     Delta-E=       -0.000179162439 Rises=F Damp=F
 DIIS: error= 6.02D-04 at cycle   6 NSaved=   6.
 NSaved= 6 IEnMin= 6 EnMin= -165.450910564444     IErMin= 6 ErrMin= 6.02D-04
 ErrMax= 6.02D-04  0.00D+00 EMaxC= 1.00D-01 BMatC= 3.53D-06 BMatP= 4.41D-05
 IDIUse=3 WtCom= 9.94D-01 WtEn= 6.02D-03
 Coeff-Com: -0.249D-01 0.343D-01 0.237D+00-0.534D-01-0.999D+00 0.181D+01
 Coeff-En:   0.000D+00 0.000D+00 0.000D+00 0.000D+00 0.000D+00 0.100D+01
 Coeff:     -0.248D-01 0.341D-01 0.235D+00-0.530D-01-0.993D+00 0.180D+01
 Gap=     0.488 Goal=   None    Shift=    0.000
 RMSDP=6.28D-04 MaxDP=3.19D-03 DE=-1.79D-04 OVMax= 0.00D+00

 Cycle   7  Pass 1  IDiag  1:
 E= -165.450940136970     Delta-E=       -0.000029572526 Rises=F Damp=F
 DIIS: error= 2.27D-04 at cycle   7 NSaved=   7.
 NSaved= 7 IEnMin= 7 EnMin= -165.450940136970     IErMin= 7 ErrMin= 2.27D-04
 ErrMax= 2.27D-04  0.00D+00 EMaxC= 1.00D-01 BMatC= 7.87D-07 BMatP= 3.53D-06
 IDIUse=3 WtCom= 9.98D-01 WtEn= 2.27D-03
 Coeff-Com:  0.176D-01-0.250D-01-0.175D+00 0.561D-01 0.717D+00-0.178D+01
 Coeff-Com:  0.219D+01
 Coeff-En:   0.000D+00 0.000D+00 0.000D+00 0.000D+00 0.000D+00 0.000D+00
 Coeff-En:   0.100D+01
 Coeff:      0.176D-01-0.250D-01-0.175D+00 0.560D-01 0.715D+00-0.177D+01
 Coeff:      0.218D+01
 Gap=     0.488 Goal=   None    Shift=    0.000
 RMSDP=4.59D-04 MaxDP=1.92D-03 DE=-2.96D-05 OVMax= 0.00D+00

 Cycle   8  Pass 1  IDiag  1:
 E= -165.450949124696     Delta-E=       -0.000008987726 Rises=F Damp=F
 DIIS: error= 9.88D-05 at cycle   8 NSaved=   8.
 NSaved= 8 IEnMin= 8 EnMin= -165.450949124696     IErMin= 8 ErrMin= 9.88D-05
 ErrMax= 9.88D-05  0.00D+00 EMaxC= 1.00D-01 BMatC= 1.54D-07 BMatP= 7.87D-07
 IDIUse=1 WtCom= 1.00D+00 WtEn= 0.00D+00
 Coeff-Com: -0.814D-02 0.110D-01 0.100D+00-0.483D-01-0.359D+00 0.110D+01
 Coeff-Com: -0.176D+01 0.196D+01
 Coeff:     -0.814D-02 0.110D-01 0.100D+00-0.483D-01-0.359D+00 0.110D+01
 Coeff:     -0.176D+01 0.196D+01
 Gap=     0.488 Goal=   None    Shift=    0.000
 RMSDP=1.51D-04 MaxDP=7.10D-04 DE=-8.99D-06 OVMax= 0.00D+00

 Cycle   9  Pass 1  IDiag  1:
 E= -165.450950315469     Delta-E=       -0.000001190773 Rises=F Damp=F
 DIIS: error= 3.95D-05 at cycle   9 NSaved=   9.
 NSaved= 9 IEnMin= 9 EnMin= -165.450950315469     IErMin= 9 ErrMin= 3.95D-05
 ErrMax= 3.95D-05  0.00D+00 EMaxC= 1.00D-01 BMatC= 1.79D-08 BMatP= 1.54D-07
 IDIUse=1 WtCom= 1.00D+00 WtEn= 0.00D+00
 Coeff-Com:  0.194D-02-0.218D-02-0.359D-01 0.186D-01 0.114D+00-0.409D+00
 Coeff-Com:  0.724D+00-0.115D+01 0.174D+01
 Coeff:      0.194D-02-0.218D-02-0.359D-01 0.186D-01 0.114D+00-0.409D+00
 Coeff:      0.724D+00-0.115D+01 0.174D+01
 Gap=     0.488 Goal=   None    Shift=    0.000
 RMSDP=6.50D-05 MaxDP=2.38D-04 DE=-1.19D-06 OVMax= 0.00D+00

 Cycle  10  Pass 1  IDiag  1:
 E= -165.450950492694     Delta-E=       -0.000000177225 Rises=F Damp=F
 DIIS: error= 1.86D-05 at cycle  10 NSaved=  10.
 NSaved=10 IEnMin=10 EnMin= -165.450950492694     IErMin=10 ErrMin= 1.86D-05
 ErrMax= 1.86D-05  0.00D+00 EMaxC= 1.00D-01 BMatC= 3.37D-09 BMatP= 1.79D-08
 IDIUse=1 WtCom= 1.00D+00 WtEn= 0.00D+00
 Coeff-Com: -0.625D-03 0.405D-03 0.204D-01-0.108D-01-0.572D-01 0.238D+00
 Coeff-Com: -0.450D+00 0.841D+00-0.165D+01 0.207D+01
 Coeff:     -0.625D-03 0.405D-03 0.204D-01-0.108D-01-0.572D-01 0.238D+00
 Coeff:     -0.450D+00 0.841D+00-0.165D+01 0.207D+01
 Gap=     0.488 Goal=   None    Shift=    0.000
 RMSDP=2.62D-05 MaxDP=1.09D-04 DE=-1.77D-07 OVMax= 0.00D+00

 Cycle  11  Pass 1  IDiag  1:
 E= -165.450950532555     Delta-E=       -0.000000039861 Rises=F Damp=F
 DIIS: error= 1.02D-05 at cycle  11 NSaved=  11.
 NSaved=11 IEnMin=11 EnMin= -165.450950532555     IErMin=11 ErrMin= 1.02D-05
 ErrMax= 1.02D-05  0.00D+00 EMaxC= 1.00D-01 BMatC= 9.97D-10 BMatP= 3.37D-09
 IDIUse=1 WtCom= 1.00D+00 WtEn= 0.00D+00
 Coeff-Com:  0.654D-03-0.450D-03-0.206D-01 0.111D-01 0.564D-01-0.240D+00
 Coeff-Com:  0.438D+00-0.814D+00 0.165D+01-0.273D+01 0.264D+01
 Coeff:      0.654D-03-0.450D-03-0.206D-01 0.111D-01 0.564D-01-0.240D+00
 Coeff:      0.438D+00-0.814D+00 0.165D+01-0.273D+01 0.264D+01
 Gap=     0.488 Goal=   None    Shift=    0.000
 RMSDP=2.50D-05 MaxDP=1.10D-04 DE=-3.99D-08 OVMax= 0.00D+00

 Cycle  12  Pass 1  IDiag  1:
 E= -165.450950548534     Delta-E=       -0.000000015979 Rises=F Damp=F
 DIIS: error= 2.50D-06 at cycle  12 NSaved=  12.
 NSaved=12 IEnMin=12 EnMin= -165.450950548534     IErMin=12 ErrMin= 2.50D-06
 ErrMax= 2.50D-06  0.00D+00 EMaxC= 1.00D-01 BMatC= 1.62D-10 BMatP= 9.97D-10
 IDIUse=1 WtCom= 1.00D+00 WtEn= 0.00D+00
 Coeff-Com:  0.176D-03-0.329D-03 0.617D-03-0.800D-03 0.223D-02 0.998D-02
 Coeff-Com: -0.212D-01 0.740D-01-0.219D+00 0.625D+00-0.109D+01 0.162D+01
 Coeff:      0.176D-03-0.329D-03 0.617D-03-0.800D-03 0.223D-02 0.998D-02
 Coeff:     -0.212D-01 0.740D-01-0.219D+00 0.625D+00-0.109D+01 0.162D+01
 Gap=     0.488 Goal=   None    Shift=    0.000
 RMSDP=6.46D-06 MaxDP=2.66D-05 DE=-1.60D-08 OVMax= 0.00D+00

 Cycle  13  Pass 1  IDiag  1:
 E= -165.450950549704     Delta-E=       -0.000000001170 Rises=F Damp=F
 DIIS: error= 3.92D-07 at cycle  13 NSaved=  13.
 NSaved=13 IEnMin=13 EnMin= -165.450950549704     IErMin=13 ErrMin= 3.92D-07
 ErrMax= 3.92D-07  0.00D+00 EMaxC= 1.00D-01 BMatC= 4.51D-12 BMatP= 1.62D-10
 IDIUse=1 WtCom= 1.00D+00 WtEn= 0.00D+00
 Coeff-Com: -0.164D-04 0.455D-04-0.510D-03 0.311D-03 0.726D-03-0.665D-02
 Coeff-Com:  0.111D-01-0.265D-01 0.654D-01-0.175D+00 0.311D+00-0.554D+00
 Coeff-Com:  0.137D+01
 Coeff:     -0.164D-04 0.455D-04-0.510D-03 0.311D-03 0.726D-03-0.665D-02
 Coeff:      0.111D-01-0.265D-01 0.654D-01-0.175D+00 0.311D+00-0.554D+00
 Coeff:      0.137D+01
 Gap=     0.488 Goal=   None    Shift=    0.000
 RMSDP=6.24D-07 MaxDP=2.54D-06 DE=-1.17D-09 OVMax= 0.00D+00

 Cycle  14  Pass 1  IDiag  1:
 E= -165.450950549717     Delta-E=       -0.000000000013 Rises=F Damp=F
 DIIS: error= 5.38D-08 at cycle  14 NSaved=  14.
 NSaved=14 IEnMin=14 EnMin= -165.450950549717     IErMin=14 ErrMin= 5.38D-08
 ErrMax= 5.38D-08  0.00D+00 EMaxC= 1.00D-01 BMatC= 1.18D-13 BMatP= 4.51D-12
 IDIUse=1 WtCom= 1.00D+00 WtEn= 0.00D+00
 Coeff-Com:  0.286D-05-0.579D-05 0.324D-04-0.182D-04 0.107D-04 0.544D-03
 Coeff-Com: -0.455D-03 0.181D-02-0.507D-02 0.219D-01-0.499D-01 0.116D+00
 Coeff-Com: -0.495D+00 0.141D+01
 Coeff:      0.286D-05-0.579D-05 0.324D-04-0.182D-04 0.107D-04 0.544D-03
 Coeff:     -0.455D-03 0.181D-02-0.507D-02 0.219D-01-0.499D-01 0.116D+00
 Coeff:     -0.495D+00 0.141D+01
 Gap=     0.488 Goal=   None    Shift=    0.000
 RMSDP=1.14D-07 MaxDP=4.79D-07 DE=-1.34D-11 OVMax= 0.00D+00

 Cycle  15  Pass 1  IDiag  1:
 E= -165.450950549718     Delta-E=        0.000000000000 Rises=F Damp=F
 DIIS: error= 1.44D-08 at cycle  15 NSaved=  15.
 NSaved=15 IEnMin=15 EnMin= -165.450950549718     IErMin=15 ErrMin= 1.44D-08
 ErrMax= 1.44D-08  0.00D+00 EMaxC= 1.00D-01 BMatC= 4.45D-15 BMatP= 1.18D-13
 IDIUse=1 WtCom= 1.00D+00 WtEn= 0.00D+00
 Coeff-Com: -0.106D-05 0.162D-05 0.353D-05-0.370D-05-0.355D-04-0.211D-04
 Coeff-Com: -0.195D-03 0.633D-04 0.126D-03-0.446D-02 0.135D-01-0.376D-01
 Coeff-Com:  0.196D+00-0.695D+00 0.153D+01
 Coeff:     -0.106D-05 0.162D-05 0.353D-05-0.370D-05-0.355D-04-0.211D-04
 Coeff:     -0.195D-03 0.633D-04 0.126D-03-0.446D-02 0.135D-01-0.376D-01
 Coeff:      0.196D+00-0.695D+00 0.153D+01
 Gap=     0.488 Goal=   None    Shift=    0.000
 RMSDP=1.58D-08 MaxDP=6.65D-08 DE=-3.41D-13 OVMax= 0.00D+00

 Cycle  16  Pass 1  IDiag  1:
 E= -165.450950549717     Delta-E=        0.000000000000 Rises=F Damp=F
 DIIS: error= 4.22D-09 at cycle  16 NSaved=  16.
 NSaved=16 IEnMin=15 EnMin= -165.450950549718     IErMin=16 ErrMin= 4.22D-09
 ErrMax= 4.22D-09  0.00D+00 EMaxC= 1.00D-01 BMatC= 3.47D-16 BMatP= 4.45D-15
 IDIUse=1 WtCom= 1.00D+00 WtEn= 0.00D+00
 Large coefficients: NSaved= 16 BigCof=    0.00 CofMax=   10.00 Det=-2.39D-16
 Inversion failed.  Reducing to 15 matrices.
 Coeff-Com:  0.560D-07-0.576D-06 0.214D-05 0.231D-05 0.697D-05 0.662D-04
 Coeff-Com: -0.832D-04 0.221D-03 0.496D-03-0.246D-02 0.867D-02-0.545D-01
 Coeff-Com:  0.221D+00-0.682D+00 0.151D+01
 Coeff:      0.560D-07-0.576D-06 0.214D-05 0.231D-05 0.697D-05 0.662D-04
 Coeff:     -0.832D-04 0.221D-03 0.496D-03-0.246D-02 0.867D-02-0.545D-01
 Coeff:      0.221D+00-0.682D+00 0.151D+01
 Gap=     0.488 Goal=   None    Shift=    0.000
 RMSDP=4.13D-09 MaxDP=1.68D-08 DE= 1.71D-13 OVMax= 0.00D+00

 SCF Done:  E(RHF) =  -165.450950550     A.U. after   16 cycles
            NFock= 16  Conv=0.41D-08     -V/T= 2.0089
 KE= 1.639901847919D+02 PE=-5.035954727596D+02 EE= 1.171847627577D+02
 Leave Link  502 at Fri Apr 15 18:53:59 2022, MaxMem=   131072000 cpu:               0.0 elap:               0.1
 (Enter C:\G16W\l801.exe)
 Range of M.O.s used for correlation:     1    16
 NBasis=    16 NAE=    11 NBE=    11 NFC=     0 NFV=     0
 NROrb=     16 NOA=    11 NOB=    11 NVA=     5 NVB=     5
 Leave Link  801 at Fri Apr 15 18:53:59 2022, MaxMem=   131072000 cpu:               0.0 elap:               0.0
 (Enter C:\G16W\l1101.exe)
 Using compressed storage, NAtomX=     4.
 Will process      5 centers per pass.
 Leave Link 1101 at Fri Apr 15 18:53:59 2022, MaxMem=   131072000 cpu:               0.0 elap:               0.0
 (Enter C:\G16W\l1102.exe)
 Symmetrizing basis deriv contribution to polar:
 IMax=3 JMax=2 DiffMx= 0.00D+00
 Leave Link 1102 at Fri Apr 15 18:53:59 2022, MaxMem=   131072000 cpu:               0.0 elap:               0.0
 (Enter C:\G16W\l1110.exe)
 Forming Gx(P) for the SCF density, NAtomX=     4.
 Integral derivatives from FoFJK, PRISM(SPDF).
 Do as many integral derivatives as possible in FoFJK.
 G2DrvN: MDV=     131071592.
 G2DrvN: will do     5 centers at a time, making    1 passes.
 Calling FoFCou, ICntrl=  3107 FMM=F I1Cent=   0 AccDes= 0.00D+00.
 FoFJK:  IHMeth= 1 ICntrl=    3107 DoSepK=F KAlg= 0 I1Cent=           0 FoldK=F
 IRaf=         0 NMat=       1 IRICut=       1 DoRegI=T DoRafI=F ISym2E= 0 IDoP0=0 IntGTp=1.
 FoFCou: FMM=F IPFlag=           0 FMFlag=      100000 FMFlg1=           0
         NFxFlg=           0 DoJE=F BraDBF=F KetDBF=F FulRan=T
         wScrn=  0.000000 ICntrl=      3107 IOpCl=  0 I1Cent=           0 NGrid=           0
         NMat0=    1 NMatS0=      1 NMatT0=    0 NMatD0=    1 NMtDS0=    0 NMtDT0=    0
 Symmetry not used in FoFCou.
 End of G2Drv F.D. properties file   721 does not exist.
 End of G2Drv F.D. properties file   722 does not exist.
 End of G2Drv F.D. properties file   788 does not exist.
 Leave Link 1110 at Fri Apr 15 18:53:59 2022, MaxMem=   131072000 cpu:               0.0 elap:               0.1
 (Enter C:\G16W\l1002.exe)
 Minotr:  Closed shell wavefunction.
          IDoAtm=1111
          Direct CPHF calculation.
          Differentiating once with respect to electric field.
                with respect to dipole field.
          Differentiating once with respect to nuclear coordinates.
          Requested convergence is 1.0D-08 RMS, and 1.0D-07 maximum.
          Secondary convergence is 1.0D-12 RMS, and 1.0D-12 maximum.
          NewPWx=T KeepS1=F KeepF1=F KeepIn=T MapXYZ=F SortEE=F KeepMc=T.
 Keep R1 ints in memory in canonical form, NReq=814683.
 FoFCou: FMM=F IPFlag=           0 FMFlag=           0 FMFlg1=           0
         NFxFlg=           0 DoJE=F BraDBF=F KetDBF=F FulRan=T
         wScrn=  0.000000 ICntrl=       600 IOpCl=  0 I1Cent=           0 NGrid=           0
         NMat0=    1 NMatS0=    136 NMatT0=    0 NMatD0=    1 NMtDS0=    0 NMtDT0=    0
 Symmetry not used in FoFCou.
 Two-electron integral symmetry not used.
          MDV=     131072000 using IRadAn=       1.
          Solving linear equations simultaneously, MaxMat=       0.
          There are    15 degrees of freedom in the 1st order CPHF.  IDoFFX=6 NUNeed=     3.
     12 vectors produced by pass  0 Test12= 3.67D-16 6.67D-09 XBig12= 1.16D+01 2.25D+00.
 AX will form    12 AO Fock derivatives at one time.
     12 vectors produced by pass  1 Test12= 3.67D-16 6.67D-09 XBig12= 6.21D-01 3.13D-01.
     12 vectors produced by pass  2 Test12= 3.67D-16 6.67D-09 XBig12= 4.42D-03 2.71D-02.
     12 vectors produced by pass  3 Test12= 3.67D-16 6.67D-09 XBig12= 8.06D-06 9.90D-04.
      7 vectors produced by pass  4 Test12= 3.67D-16 6.67D-09 XBig12= 2.07D-09 2.23D-05.
 InvSVY:  IOpt=1 It=  1 EMax= 1.11D-15
 Solved reduced A of dimension    55 with    12 vectors.
 FullF1:  Do perturbations      1 to       3.
 Isotropic polarizability for W=    0.000000       11.00 Bohr**3.
 End of Minotr F.D. properties file   721 does not exist.
 End of Minotr F.D. properties file   722 does not exist.
 End of Minotr F.D. properties file   788 does not exist.
 Leave Link 1002 at Fri Apr 15 18:54:00 2022, MaxMem=   131072000 cpu:               1.0 elap:               0.0
 (Enter C:\G16W\l601.exe)
 Copying SCF densities to generalized density rwf, IOpCl= 0 IROHF=0.

 **********************************************************************

            Population analysis using the SCF density.

 **********************************************************************

 Orbital symmetries:
       Occupied  (A) (A) (A) (A) (A) (A) (A) (A) (A) (A) (A)
       Virtual   (A) (A) (A) (A) (A)
 The electronic state is 1-A.
 Alpha  occ. eigenvalues --  -20.42213 -15.30793 -11.21025  -1.45533  -1.08605
 Alpha  occ. eigenvalues --   -0.70167  -0.60852  -0.59065  -0.53928  -0.38535
 Alpha  occ. eigenvalues --   -0.31074
 Alpha virt. eigenvalues --    0.17775   0.29176   0.61425   0.74423   1.03808
          Condensed to atoms (all electrons):
               1          2          3          4
     1  H    0.593922   0.297973  -0.033037   0.001166
     2  N    0.297973   6.705423   0.330182  -0.021367
     3  C   -0.033037   0.330182   4.843704   0.513576
     4  O    0.001166  -0.021367   0.513576   7.679965
 Mulliken charges:
               1
     1  H    0.139976
     2  N   -0.312211
     3  C    0.345576
     4  O   -0.173340
 Sum of Mulliken charges =   0.00000
 Mulliken charges with hydrogens summed into heavy atoms:
               1
     2  N   -0.172236
     3  C    0.345576
     4  O   -0.173340
 APT charges:
               1
     1  H    0.166842
     2  N   -0.407736
     3  C    0.560551
     4  O   -0.319657
 Sum of APT charges =   0.00000
 APT charges with hydrogens summed into heavy atoms:
               1
     2  N   -0.240894
     3  C    0.560551
     4  O   -0.319657
 Electronic spatial extent (au):  <R**2>=            125.7663
 Charge=              0.0000 electrons
 Dipole moment (field-independent basis, Debye):
    X=             -0.0532    Y=              2.0111    Z=              0.1316  Tot=              2.0161
 Quadrupole moment (field-independent basis, Debye-Ang):
   XX=            -16.3959   YY=            -14.4071   ZZ=            -14.9248
   XY=              1.3942   XZ=              0.4808   YZ=              0.0747
 Traceless Quadrupole moment (field-independent basis, Debye-Ang):
   XX=             -1.1534   YY=              0.8355   ZZ=              0.3178
   XY=              1.3942   XZ=              0.4808   YZ=              0.0747
 Octapole moment (field-independent basis, Debye-Ang**2):
  XXX=              0.5728  YYY=             -0.0761  ZZZ=              0.1526  XYY=             -1.6343
  XXY=              2.9209  XXZ=              0.7344  XZZ=             -2.1902  YZZ=              0.0098
  YYZ=              0.1294  XYZ=              0.0537
 Hexadecapole moment (field-independent basis, Debye-Ang**3):
 XXXX=            -99.3965 YYYY=            -15.2707 ZZZZ=             -9.6840 XXXY=              4.2775
 XXXZ=              1.3079 YYYX=              1.2792 YYYZ=              0.0557 ZZZX=              0.0391
 ZZZY=              0.0090 XXYY=            -18.6351 XXZZ=            -19.3166 YYZZ=             -4.2009
 XXYZ=              0.1812 YYXZ=              0.1497 ZZXY=              0.3557
 N-N= 5.696957466023D+01 E-N=-5.035954727543D+02  KE= 1.639901847919D+02
  Exact polarizability:  22.140   0.150   7.468   0.925  -0.030   3.382
 Approx polarizability:  30.034  -1.098   8.876   0.376  -0.082   2.110
 No NMR shielding tensors so no spin-rotation constants.
 Leave Link  601 at Fri Apr 15 18:54:00 2022, MaxMem=   131072000 cpu:               0.0 elap:               0.0
 (Enter C:\G16W\l701.exe)
 SCFChk:  SCF convergence  4.13D-09 required  1.00D-08
 ... and contract with generalized density number  0.
 Compute integral second derivatives.
 Entering OneElI...
 Calculate overlap and kinetic energy integrals
    NBasis =  16  MinDer = 2  MaxDer = 2
 Requested accuracy = 0.1000D-12
 PrmmSu-InSpLW:  IPartL=    0 NPrtUS=    1 NPrtUL=    1 DoSpLW=F IThBeg=    0 IThEnd=    0 NThAct=    1.
 PrsmSu:  NPrtUS=   1 ThrOK=F IAlg=1 NPAlg=1 LenDen=           0 ISkipM=0 DoSpLW=F IThBeg=    0 IThEnd=    0.
 Prism:   IPart=     0 DynPar=F LinDyn=F Incr=           1.
 PRISM was handed   131065534 working-precision words and    28 shell-pairs
 IPart=  0 NShTot=          28 NBatch=           8 AvBLen=         3.5
 PrSmSu:  NxtVal=              2.
 Entering OneElI...
 Calculate potential energy integrals
    NBasis =  16  MinDer = 2  MaxDer = 2
 Requested accuracy = 0.1000D-12
 PrmmSu-InSpLW:  IPartL=    0 NPrtUS=    1 NPrtUL=    1 DoSpLW=F IThBeg=    0 IThEnd=    0 NThAct=    1.
 PrsmSu:  NPrtUS=   1 ThrOK=F IAlg=1 NPAlg=1 LenDen=           0 ISkipM=0 DoSpLW=F IThBeg=    0 IThEnd=    0.
 Prism:   IPart=     0 DynPar=F LinDyn=F Incr=           1.
 PRISM was handed   131065828 working-precision words and    27 shell-pairs
 IPart=  0 NShTot=         108 NBatch=          27 AvBLen=         4.0
 PrSmSu:  NxtVal=              2.
 Polarizability after L701:
                1             2             3 
      1  0.221400D+02
      2  0.150165D+00  0.746789D+01
      3  0.925458D+00 -0.295124D-01  0.338167D+01
 Dipole Derivatives after L701:
                 1             2             3             4             5 
      1   0.258079D+00 -0.192869D+00  0.288494D-02 -0.757612D+00  0.401090D+00
      2  -0.976723D-01 -0.390714D-01 -0.516996D-01 -0.179963D+00  0.616427D-01
      3  -0.235099D-01 -0.358752D-01  0.281518D+00  0.540499D-01  0.199215D-01
                 6             7             8             9            10 
      1   0.124315D-01  0.129169D+01  0.501631D-01 -0.829825D-01 -0.792162D+00
      2   0.510196D-01  0.271463D+00  0.328510D-01  0.139701D-01  0.617221D-02
      3  -0.527239D+00 -0.172996D-01  0.293888D-01  0.357108D+00 -0.132404D-01
                11            12 
      1  -0.258384D+00  0.676661D-01
      2  -0.554223D-01 -0.132902D-01
      3  -0.134351D-01 -0.111386D+00
 Hessian after L701:
                1             2             3             4             5 
      1  0.197941D+01
      2 -0.789476D+00  0.150728D+01
      3 -0.133108D+00 -0.185597D+00  0.245346D+01
      4 -0.197786D+01  0.662289D+00  0.120226D+00 -0.118250D+00
      5  0.868802D+00 -0.153065D+01  0.192558D+00  0.252836D+01  0.574306D+01
      6  0.149613D+00  0.178032D+00 -0.244492D+01 -0.292268D+00 -0.225494D+00
      7 -0.126523D+00  0.296251D-01 -0.560689D-02  0.126475D+01 -0.313714D+01
      8 -0.148993D+00  0.312063D-01 -0.131088D-01 -0.325276D+01 -0.367834D+01
      9 -0.237115D-01  0.724323D-02  0.255987D-01  0.205125D+00  0.279033D-01
     10  0.124972D+00  0.975618D-01  0.184893D-01  0.831362D+00 -0.260018D+00
     11  0.696676D-01 -0.783451D-02  0.614718D-02  0.621178D-01 -0.534064D+00
     12  0.720662D-02  0.321488D-03 -0.341391D-01 -0.330827D-01  0.503284D-02
                6             7             8             9            10 
      6  0.868785D+01
      7  0.164109D+00 -0.402141D+00
      8  0.544954D-01 -0.160538D+01  0.137178D+02
      9 -0.579216D+01  0.396515D+00  0.371519D+00  0.171866D+02
     10 -0.214543D-01 -0.736083D+00  0.500713D+01 -0.577928D+00 -0.220252D+00
     11 -0.703300D-02  0.471289D+01 -0.100706D+02 -0.406665D+00 -0.484468D+01
     12 -0.450762D+00 -0.555017D+00 -0.412906D+00 -0.114200D+02  0.580893D+00
               11            12 
     11  0.106125D+02
     12  0.407551D+00  0.119049D+02
 Leave Link  701 at Fri Apr 15 18:54:00 2022, MaxMem=   131072000 cpu:               0.0 elap:               0.1
 (Enter C:\G16W\l702.exe)
 L702 exits ... SP integral derivatives will be done elsewhere.
 Leave Link  702 at Fri Apr 15 18:54:00 2022, MaxMem=   131072000 cpu:               0.0 elap:               0.0
 (Enter C:\G16W\l703.exe)
 Integral derivatives from FoFJK, PRISM(SPDF).
 Compute integral second derivatives, UseDBF=F ICtDFT=           0.
 ICntrl=    100127.
 Calling FoFJK, ICntrl=    100127 FMM=F ISym2X=0 I1Cent= 0 IOpClX= 0 NMat=1 NMatS=1 NMatT=0.
 FoFJK:  IHMeth= 1 ICntrl=  100127 DoSepK=F KAlg= 0 I1Cent=           0 FoldK=F
 IRaf=         0 NMat=       1 IRICut=       1 DoRegI=T DoRafI=F ISym2E= 0 IDoP0=0 IntGTp=1.
 FoFCou: FMM=F IPFlag=           0 FMFlag=      100000 FMFlg1=         800
         NFxFlg=           0 DoJE=F BraDBF=F KetDBF=F FulRan=T
         wScrn=  0.000000 ICntrl=    100127 IOpCl=  0 I1Cent=           0 NGrid=           0
         NMat0=    1 NMatS0=      1 NMatT0=    0 NMatD0=    1 NMtDS0=    0 NMtDT0=    0
 Symmetry not used in FoFCou.
 FoFCou:  KetSym=F NOpSet=  1 NOpAb=1 NOp=  1.
 FoFCou:  CnvScl= 1.00D+00 Thresh= 1.00D-12 IAcrcy=      10.
 PrismS was handed   131066192 working-precision words and    27 shell-pairs
 FoFCou: LinMIO=F DoNuc=F BraDBF=F KetDBF=F HaveP=T PDBF=F HaveZ=T HaveW=F
         NIJTC =       3 NIJTAt=       0 NIJTCD=       0 NIJTT =       3
         IJTBeg=       1 IJTEnd=       3 KLTBeg=       1 KLTEnd=       3
         IPTBeg=       1 IPTEnd=       3 IPTBCv=       1 IPTECv=       3
         IZTBeg=       1 IZTEnd=       3 IZTBCv=       1 IZTECv=       3
         IWTBeg=       4 IWTEnd=       3 IWTBCv=       4 IWTECv=       3
         INTBeg=       1 INTEnd=       0 IFTBCv=       1 IFTECv=       3
 NCel replicated for PrismC:     1
 CoulSu-InSpLW:  IPartL=    0 NPrtUS=    1 NPrtUL=    1 DoSpLW=F IThBeg=    0 IThEnd=    0 NThAct=    1.
 CoulSu:  IncDef=  1024 NBBP=            378 NTPThr=   100 NPartT=    1 Incr=           3 LDynOK=F GPUOK=T.
 CoulSu:  NPrtUS=   1 ThrOK=F IAlg=1 NPAlg=1 LenDen=           0 LWGrdD=           0 DoCopy=F ISkipM=0
          DoSpLW=F IThBeg=    0 IThEnd=    0.
 Enter PrismC:  IPart=  0 JobTyp=22 DoJE=F Cont=F.
 PrismC:  IPart=     0 DynPar=F LinDyn=F Incr=           3 UseFst=F UseS4=T ISplat=2.
 PrismC was handed   131066103 working-precision words and    27 shell-pairs
 IPart=  0 NShTot=         376 NShNF=         376 NShFF=           0 MinMC=      10
           NShCPU=         376 NBCPU=          43 AvBCPU=         8.7
           NShGPU=           0 NBGPU=           0 AvBGPU=         0.0
 CoulSu:  NxtVal=              4 LenVP=      131066104 MinMC=      10.
 Polarizability after L703:
                1             2             3 
      1  0.221400D+02
      2  0.150165D+00  0.746789D+01
      3  0.925458D+00 -0.295124D-01  0.338167D+01
 Dipole Derivatives after L703:
                 1             2             3             4             5 
      1   0.258079D+00 -0.192869D+00  0.288494D-02 -0.757612D+00  0.401090D+00
      2  -0.976723D-01 -0.390714D-01 -0.516996D-01 -0.179963D+00  0.616427D-01
      3  -0.235099D-01 -0.358752D-01  0.281518D+00  0.540499D-01  0.199215D-01
                 6             7             8             9            10 
      1   0.124315D-01  0.129169D+01  0.501631D-01 -0.829825D-01 -0.792162D+00
      2   0.510196D-01  0.271463D+00  0.328510D-01  0.139701D-01  0.617221D-02
      3  -0.527239D+00 -0.172996D-01  0.293888D-01  0.357108D+00 -0.132404D-01
                11            12 
      1  -0.258384D+00  0.676661D-01
      2  -0.554223D-01 -0.132902D-01
      3  -0.134351D-01 -0.111386D+00
 Hessian after L703:
                1             2             3             4             5 
      1  0.268135D+00
      2  0.226816D+00  0.316067D+00
      3  0.459443D-01  0.498508D-01  0.129561D-01
      4 -0.225151D+00 -0.272976D+00 -0.510211D-01  0.455906D+00
      5 -0.187293D+00 -0.322120D+00 -0.451758D-01  0.271663D+00  0.377018D+00
      6 -0.397976D-01 -0.534577D-01 -0.137929D-01  0.466307D-01  0.544057D-01
      7 -0.419075D-01  0.398448D-01  0.220544D-02 -0.515377D-01 -0.106109D+00
      8 -0.495608D-01  0.793809D-02 -0.505343D-02 -0.845004D-02 -0.872116D-01
      9 -0.649544D-02  0.608495D-02 -0.272127D-02  0.649268D-02 -0.137748D-01
     10 -0.107635D-02  0.631448D-02  0.287141D-02 -0.179217D+00  0.217391D-01
     11  0.100377D-01 -0.188432D-02  0.378427D-03  0.976220D-02  0.323137D-01
     12  0.348764D-03 -0.247804D-02  0.355806D-02 -0.210225D-02  0.454491D-02
                6             7             8             9            10 
      6  0.590595D-01
      7 -0.488315D-02  0.125101D+01
      8 -0.182682D-02  0.581112D+00  0.308101D+00
      9 -0.673908D-01 -0.626324D-01 -0.176746D-01  0.866542D-01
     10 -0.194995D-02 -0.115757D+01 -0.523101D+00  0.626351D-01  0.133786D+01
     11  0.878883D-03 -0.514848D+00 -0.228828D+00  0.253644D-01  0.495048D+00
     12  0.221242D-01  0.653101D-01  0.245548D-01 -0.165421D-01 -0.635566D-01
               11            12 
     11  0.198398D+00
     12 -0.266217D-01 -0.914012D-02
 Leave Link  703 at Fri Apr 15 18:54:00 2022, MaxMem=   131072000 cpu:               0.0 elap:               0.1
 (Enter C:\G16W\l716.exe)
 FrcOut:
 IF    =        41 IFX   =        53 IFXYZ =        65
 IFFX  =        77 IFFFX =       155 IFLen =        12
 IFFLen=        78 IFFFLn=         0 IEDerv=       155
 LEDerv=       629 IFroze=       954 ICStrt=      1551
 Dipole        =-2.09126871D-02 7.91210974D-01 5.17693767D-02
 DipoleDeriv   = 2.58079228D-01-9.76722536D-02-2.35099151D-02
                -1.92869037D-01-3.90713533D-02-3.58751777D-02
                 2.88494133D-03-5.16995614D-02 2.81517673D-01
                -7.57611514D-01-1.79962595D-01 5.40499486D-02
                 4.01090356D-01 6.16426509D-02 1.99215211D-02
                 1.24314766D-02 5.10195998D-02-5.27238990D-01
                 1.29169382D+00 2.71462639D-01-1.72996247D-02
                 5.01630670D-02 3.28510176D-02 2.93887728D-02
                -8.29824821D-02 1.39701392D-02 3.57107596D-01
                -7.92161537D-01 6.17220994D-03-1.32404088D-02
                -2.58384386D-01-5.54223152D-02-1.34351163D-02
                 6.76660641D-02-1.32901775D-02-1.11386279D-01
 Polarizability= 2.21399927D+01 1.50165385D-01 7.46788825D+00
                 9.25457685D-01-2.95123606D-02 3.38167443D+00
 HyperPolar    =-1.58182009D+01 2.54822474D+01-5.06910777D+00
                 8.21499910D+00-5.85953879D+00 3.69104665D+00
                -5.19892562D-01-1.50524341D+01 4.72528539D+00
                 2.21749811D-01
 Quadrupole    =-8.57493294D-01 6.21194368D-01 2.36298926D-01
                 1.03657214D+00 3.57472671D-01 5.55013014D-02
 VibFq2-Diag1:  N=     12 IV=           5 MDV=   131069605 NE2=    10922466
 Full mass-weighted force constant matrix:
 Low frequencies --- -218.8166 -199.4547   -0.0008    0.0005    0.0009  310.3202
 Low frequencies ---  377.2163  532.3763  765.4275
 OrtVCM:  Ph=1 IPass= 1 DotMx1= 0.00D+00
 OrtVCM:  IS=    1 I=    1 IndO=    1 Dot= 1.00D+00 DotN= 1.00D+00 ElMax1= 6.10D-01 ElMax1N= 6.10D-01
 OrtVCM:  Ph=2 NNew=    0 IAdd=    2 IPass= 1 DotMx2= 0.00D+00
 OrtVCM:  IS=    1 I=    2 IndO=    2 Dot= 1.00D+00 DotN= 1.00D+00 ElMax1= 6.10D-01 ElMax1N= 6.10D-01
 OrtVCM:  Ph=2 NNew=    0 IAdd=    3 IPass= 1 DotMx2= 0.00D+00
 OrtVCM:  IS=    1 I=    3 IndO=    3 Dot= 1.00D+00 DotN= 1.00D+00 ElMax1= 6.10D-01 ElMax1N= 6.10D-01
 OrtVCM:  Ph=2 NNew=    0 IAdd=    4 IPass= 1 DotMx2= 1.94D-16
 OrtVCM:  IS=    1 I=    4 IndO=    4 Dot= 1.00D+00 DotN= 1.00D+00 ElMax1= 7.29D-01 ElMax1N= 7.29D-01
 OrtVCM:  Ph=2 NNew=    0 IAdd=    5 IPass= 1 DotMx2= 2.50D-16
 OrtVCM:  IS=    1 I=    5 IndO=    5 Dot= 1.00D+00 DotN= 1.00D+00 ElMax1= 6.83D-01 ElMax1N= 6.83D-01
 OrtVCM:  Ph=2 NNew=    0 IAdd=    6 IPass= 1 DotMx2= 2.32D-16
 OrtVCM:  IS=    1 I=    6 IndO=    6 Dot= 1.00D+00 DotN= 1.00D+00 ElMax1= 6.62D-01 ElMax1N= 6.62D-01
 OrtVCM:  Ph=1 IPass= 1 DotMx1= 6.83D-01
 OrtVCM:  Ph=1 IPass= 2 DotMx1= 2.01D-16
 OrtVCM:  IS=    1 I=    1 IndO=    7 Dot= 9.69D-01 DotN= 9.69D-01 ElMax1= 9.69D-01 ElMax1N= 9.69D-01
 OrtVCM:  Ph=2 NNew=    0 IAdd=    2 IPass= 1 DotMx2= 2.38D-02
 OrtVCM:  Ph=2 NNew=    0 IAdd=    2 IPass= 2 DotMx2= 1.25D-17
 OrtVCM:  IS=    1 I=    2 IndO=    8 Dot= 8.93D-01 DotN= 8.93D-01 ElMax1= 8.93D-01 ElMax1N= 8.93D-01
 OrtVCM:  Ph=2 NNew=    0 IAdd=    3 IPass= 1 DotMx2= 3.73D-02
 OrtVCM:  Ph=2 NNew=    0 IAdd=    3 IPass= 2 DotMx2= 7.81D-18
 OrtVCM:  IS=    1 I=    3 IndO=    9 Dot= 7.39D-01 DotN= 7.39D-01 ElMax1= 7.39D-01 ElMax1N= 7.39D-01
 OrtVCM:  Ph=2 NNew=    0 IAdd=    4 IPass= 1 DotMx2= 7.84D-02
 OrtVCM:  Ph=2 NNew=    0 IAdd=    4 IPass= 2 DotMx2= 3.00D-17
 OrtVCM:  IS=    1 I=    4 IndO=   10 Dot= 6.53D-01 DotN= 6.53D-01 ElMax1= 6.53D-01 ElMax1N= 6.53D-01
 OrtVCM:  Ph=2 NNew=    0 IAdd=    5 IPass= 1 DotMx2= 2.86D-01
 OrtVCM:  Ph=2 NNew=    0 IAdd=    5 IPass= 2 DotMx2= 1.87D-16
 OrtVCM:  IS=    1 I=    5 IndO=   11 Dot= 1.40D-01 DotN= 1.40D-01 ElMax1= 2.96D-01 ElMax1N= 2.96D-01
 OrtVCM:  Ph=2 NNew=    0 IAdd=    6 IPass= 1 DotMx2= 1.20D-01
 OrtVCM:  Ph=2 NNew=    0 IAdd=    6 IPass= 2 DotMx2= 1.96D-17
 OrtVCM:  IS=    1 I=    6 IndO=    0 Dot= 1.00D-34 DotN= 1.00D-34 ElMax1= 5.58D-18 ElMax1N= 5.58D-18
 SchOr2:  IPass= 1 Test2A= 1.00D-01 IOff=     0 NDo=     6 NNew=     5
 OrtVCM:  Ph=1 IPass= 1 DotMx1= 5.28D-01
 OrtVCM:  Ph=1 IPass= 2 DotMx1= 1.67D-16
 OrtVCM:  IS=    1 I=    1 IndO=   12 Dot= 4.86D-01 DotN= 4.86D-01 ElMax1= 4.86D-01 ElMax1N= 4.86D-01
 SchOr2:  IPass= 1 Test2A= 1.00D-01 IOff=     6 NDo=     1 NNew=     1
 VibFq2-Diag2:  N=      6 IV=           5 MDV=   131069605 NE2=    21844933
 Dipole derivative wrt mode   1: -4.26210D+00 -1.48056D+00  2.35099D+00
 Vibrational polarizability contributions from mode   1       6.6116761       0.7978431       2.0117115
 Dipole derivative wrt mode   2:  5.49971D-01 -8.72117D-01  6.09791D+00
 Vibrational polarizability contributions from mode   2       0.0593787       0.1493138       7.2998257
 Dipole derivative wrt mode   3: -8.52204D+00 -2.06745D+00 -1.91980D-01
 Vibrational polarizability contributions from mode   3       3.3680264       0.1982242       0.0017092
 Dipole derivative wrt mode   4:  1.06821D+01 -1.70511D+00  1.03209D-01
 Vibrational polarizability contributions from mode   4       1.5978030       0.0407111       0.0001492
 Dipole derivative wrt mode   5:  1.09531D+01  1.95909D+00 -9.09820D-02
 Vibrational polarizability contributions from mode   5       0.5672723       0.0181480       0.0000391
 Dipole derivative wrt mode   6:  1.30897D+00 -2.83241D+00 -1.29271D-01
 Vibrational polarizability contributions from mode   6       0.0031045       0.0145359       0.0000303
 Diagonal vibrational polarizability:
       12.2072611       1.2187760       9.3134650
 NorSel:  MapVib=      1      2      3      4      5      6
 Harmonic frequencies (cm**-1), IR intensities (KM/Mole), Raman scattering
 activities (A**4/AMU), depolarization ratios for plane and unpolarized
 incident light, reduced masses (AMU), force constants (mDyne/A),
 and normal coordinates:
                      1                      2                      3
                      A                      A                      A
 Frequencies --    271.9161               370.2468               761.7675
 Red. masses --      5.2280                 1.5046                 7.7893
 Frc consts  --      0.2278                 0.1215                 2.6631
 IR Inten    --     25.8848                38.2476                76.9364
  Atom  AN      X      Y      Z        X      Y      Z        X      Y      Z
     1   1     0.15  -0.32   0.72    -0.18   0.03   0.96    -0.17   0.64  -0.21
     2   7     0.10  -0.19  -0.01     0.01   0.04  -0.04     0.57  -0.09  -0.01
     3   6    -0.22   0.46  -0.15     0.04  -0.11  -0.13    -0.25  -0.10   0.06
     4   8     0.07  -0.16   0.07    -0.02   0.05   0.07    -0.30   0.11  -0.03
                      4                      5                      6
                      A                      A                      A
 Frequencies --   1386.3159              2385.6465              3853.9036
 Red. masses --      1.1963                11.6755                 1.0747
 Frc consts  --      1.3546                39.1505                 9.4049
 IR Inten    --    117.0256               123.8157                 9.7526
  Atom  AN      X      Y      Z        X      Y      Z        X      Y      Z
     1   1     0.79  -0.60   0.02    -0.28   0.25  -0.01     0.65   0.74   0.13
     2   7     0.03   0.08   0.01     0.01  -0.04   0.00    -0.05  -0.05  -0.01
     3   6    -0.01  -0.03  -0.02     0.68   0.32  -0.03     0.00   0.00   0.00
     4   8    -0.07  -0.01   0.00    -0.50  -0.22   0.03     0.00   0.00   0.00

 -------------------
 - Thermochemistry -
 -------------------
 Temperature   298.150 Kelvin.  Pressure   1.00000 Atm.
 Atom     1 has atomic number  1 and mass   1.00783
 Atom     2 has atomic number  7 and mass  14.00307
 Atom     3 has atomic number  6 and mass  12.00000
 Atom     4 has atomic number  8 and mass  15.99491
 Molecular mass:    43.00581 amu.
 Principal axes and moments of inertia in atomic units:
                           1         2         3
     Eigenvalues --     9.16402 160.98440 169.88602
           X            0.99967   0.02506   0.00619
           Y           -0.02525   0.99914   0.03283
           Z           -0.00536  -0.03298   0.99944
 This molecule is an asymmetric top.
 Rotational symmetry number  1.
 Rotational temperatures (Kelvin)      9.45152     0.53803     0.50984
 Rotational constants (GHZ):         196.93773    11.21066    10.62325
 Zero-point vibrational energy      54010.2 (Joules/Mol)
                                   12.90874 (Kcal/Mol)
 Warning -- explicit consideration of   2 degrees of freedom as
           vibrations may cause significant error
 Vibrational temperatures:    391.23   532.70  1096.01  1994.60  3432.41
          (Kelvin)           5544.91
 
 Zero-point correction=                           0.020571 (Hartree/Particle)
 Thermal correction to Energy=                    0.024298
 Thermal correction to Enthalpy=                  0.025242
 Thermal correction to Gibbs Free Energy=        -0.003399
 Sum of electronic and zero-point Energies=           -165.430379
 Sum of electronic and thermal Energies=              -165.426653
 Sum of electronic and thermal Enthalpies=            -165.425708
 Sum of electronic and thermal Free Energies=         -165.454350
 
                     E (Thermal)             CV                S
                      KCal/Mol        Cal/Mol-Kelvin    Cal/Mol-Kelvin
 Total                   15.247             10.049             60.281
 Electronic               0.000              0.000              0.000
 Translational            0.889              2.981             37.203
 Rotational               0.889              2.981             20.155
 Vibrational             13.470              4.088              2.923
 Vibration     1          0.675              1.725              1.584
 Vibration     2          0.742              1.533              1.079
                       Q            Log10(Q)             Ln(Q)
 Total Bot       0.365980D+02          1.563457          3.599993
 Total V=0       0.106079D+12         11.025631         25.387454
 Vib (Bot)       0.582577D-09         -9.234647        -21.263560
 Vib (Bot)    1  0.710042D+00         -0.148716         -0.342430
 Vib (Bot)    2  0.491640D+00         -0.308353         -0.710009
 Vib (V=0)       0.168860D+01          0.227527          0.523901
 Vib (V=0)    1  0.136842D+01          0.136221          0.313660
 Vib (V=0)    2  0.120122D+01          0.079623          0.183338
 Electronic      0.100000D+01          0.000000          0.000000
 Translational   0.110852D+08          7.044745         16.221124
 Rotational      0.566708D+04          3.753359          8.642429
 Write normal modes, IRwNMS=   765 IRotNM=-1 NVibU=     6.
 
                                                                  T1
                                                             IR Spectrum
 
     3                                                2                                1                                             
     8                                                3                                3                   7            3   2        
     5                                                8                                8                   6            7   7        
     4                                                6                                6                   2            0   2        
 
     X                                                X                                X                   X            X   X        
     X                                                X                                X                   X            X   X        
                                                      X                                X                   X            X   X        
                                                      X                                X                   X            X   X        
                                                      X                                X                   X            X            
                                                      X                                X                   X            X            
                                                      X                                X                   X                         
                                                      X                                X                   X                         
                                                      X                                X                   X                         
                                                      X                                X                   X                         
                                                      X                                X                   X                         
                                                      X                                X                   X                         
                                                      X                                X                                             
                                                      X                                X                                             
                                                      X                                X                                             
                                                      X                                X                                             
                                                      X                                X                                             
                                                      X                                X                                             
                                                      X                                X                                             
                                                      X                                                                              
 
 Forces in standard orientation:
 -------------------------------------------------------------------
 Center     Atomic                   Forces (Hartrees/Bohr)
 Number     Number              X              Y              Z
 -------------------------------------------------------------------
      1        1          -0.005211558    0.004158104    0.001426818
      2        7           0.059628148   -0.072999884    0.003285749
      3        6          -0.146783961    0.079433856   -0.005689232
      4        8           0.092367372   -0.010592076    0.000976665
 -------------------------------------------------------------------
 Cartesian Forces:  Max     0.146783961 RMS     0.061559114
 ***** Axes restored to original set *****
 Rotating derivatives, DoTrsp=F IDiff=-2 LEDeriv=    628 LFDPrp=       0 LDFDPr=       0.
 -------------------------------------------------------------------
 Center     Atomic                   Forces (Hartrees/Bohr)
 Number     Number              X              Y              Z
 -------------------------------------------------------------------
      1        1          -0.006691575    0.001303176    0.000102669
      2        7           0.092272738    0.007438943   -0.018047140
      3        6          -0.163821111   -0.004431660   -0.032103583
      4        8           0.078239948   -0.004310460    0.050048055
 -------------------------------------------------------------------
 Cartesian Forces:  Max     0.163821111 RMS     0.061559114
 From PutF, contents of force:
   1   -0.1026686590D-03
   2   -0.7726423159D-01
   3    0.8108020132D-01
   4    0.1328362770D-01
   5    0.9868255879D-01
   6   -0.2485783197D-02
 -----------------------------------------------------------------------------------------------
                       Internal Coordinate Forces (Hartree/Bohr or radian)
  Cent   Atom   N1       Length/X         N2         Alpha/Y        N3         Beta/Z          J
 -----------------------------------------------------------------------------------------------
      1  H 
      2  N        1  -0.000103(     1)
      3  C        2  -0.077264(     2)      1   0.013284(     4)
      4  O        3   0.081080(     3)      2   0.098683(     5)      1  -0.002486(     6)     0
 -----------------------------------------------------------------------------------------------
 Internal  Forces:  Max     0.098682559 RMS     0.061189123
 Force constants in Cartesian coordinates: 
                1             2             3             4             5 
      1  0.649289D-01
      2  0.221160D-02  0.413007D-02
      3  0.213509D-01 -0.122247D-02  0.528099D+00
      4 -0.382984D-01 -0.594269D-02 -0.415344D-01  0.158169D+00
      5 -0.355942D-02 -0.506843D-02  0.447407D-03 -0.873680D-02  0.507212D-01
      6  0.452386D-01  0.133065D-02 -0.517697D+00  0.915619D-01 -0.106242D-01
      7 -0.171567D-01  0.202584D-02  0.197443D-01 -0.990037D-02  0.413031D-02
      8  0.277619D-03 -0.267142D-02  0.285317D-02  0.733705D-02 -0.668358D-01
      9 -0.706295D-01 -0.190522D-02 -0.168625D-01  0.563469D-01  0.486882D-02
     10 -0.947372D-02  0.170526D-02  0.439304D-03 -0.109971D+00  0.816591D-02
     11  0.107020D-02  0.360977D-02 -0.207811D-02  0.734244D-02  0.211830D-01
     12  0.404003D-02  0.179703D-02  0.646134D-02 -0.106374D+00  0.530799D-02
                6             7             8             9            10 
      6  0.683093D+00
      7 -0.425693D-01  0.306321D+00
      8  0.102347D-02 -0.110331D+00  0.117441D+00
      9 -0.129404D+00  0.569861D+00 -0.195664D+00  0.122200D+01
     10 -0.942312D-01 -0.279264D+00  0.102717D+00 -0.555579D+00  0.398708D+00
     11  0.827010D-02  0.104175D+00 -0.479341D-01  0.192700D+00 -0.112588D+00
     12 -0.359912D-01 -0.547036D+00  0.191787D+00 -0.107574D+01  0.649371D+00
               11            12 
     11  0.231414D-01
     12 -0.198892D+00  0.110527D+01
 FCInt: Cartesian first derivatives: 
                 1             2             3             4 
      1  -0.669157D-02  0.922727D-01 -0.163821D+00  0.782399D-01
      2   0.130318D-02  0.743894D-02 -0.443166D-02 -0.431046D-02
      3   0.102669D-03 -0.180471D-01 -0.321036D-01  0.500481D-01
 FCInt: Cartesian force constants: 
                1             2             3             4             5 
      1  0.649289D-01
      2  0.221160D-02  0.413007D-02
      3  0.213509D-01 -0.122247D-02  0.528099D+00
      4 -0.382984D-01 -0.594269D-02 -0.415344D-01  0.158169D+00
      5 -0.355942D-02 -0.506843D-02  0.447407D-03 -0.873680D-02  0.507212D-01
      6  0.452386D-01  0.133065D-02 -0.517697D+00  0.915619D-01 -0.106242D-01
      7 -0.171567D-01  0.202584D-02  0.197443D-01 -0.990037D-02  0.413031D-02
      8  0.277619D-03 -0.267142D-02  0.285317D-02  0.733705D-02 -0.668358D-01
      9 -0.706295D-01 -0.190522D-02 -0.168625D-01  0.563469D-01  0.486882D-02
     10 -0.947372D-02  0.170526D-02  0.439304D-03 -0.109971D+00  0.816591D-02
     11  0.107020D-02  0.360977D-02 -0.207811D-02  0.734244D-02  0.211830D-01
     12  0.404003D-02  0.179703D-02  0.646134D-02 -0.106374D+00  0.530799D-02
                6             7             8             9            10 
      6  0.683093D+00
      7 -0.425693D-01  0.306321D+00
      8  0.102347D-02 -0.110331D+00  0.117441D+00
      9 -0.129404D+00  0.569861D+00 -0.195664D+00  0.122200D+01
     10 -0.942312D-01 -0.279264D+00  0.102717D+00 -0.555579D+00  0.398708D+00
     11  0.827010D-02  0.104175D+00 -0.479341D-01  0.192700D+00 -0.112588D+00
     12 -0.359912D-01 -0.547036D+00  0.191787D+00 -0.107574D+01  0.649371D+00
               11            12 
     11  0.231414D-01
     12 -0.198892D+00  0.110527D+01
 Internal force constants: 
                1             2             3             4             5 
      1  0.528099D+00
      2 -0.165136D-01  0.210814D+00
      3 -0.613593D-02  0.160460D+00  0.152397D+01
      4  0.356926D-01  0.874057D-01  0.228369D-02  0.255663D+00
      5  0.618782D-02  0.160682D+00  0.737237D-01  0.430281D-01  0.249497D+00
      6 -0.107964D-02 -0.678148D-02 -0.342329D-02  0.765798D-02 -0.511814D-02
                6 
      6  0.113042D-01
 Frcnst in PutFF: 
                1             2             3             4             5 
      1  0.528099D+00
      2 -0.165136D-01  0.210814D+00
      3 -0.613593D-02  0.160460D+00  0.152397D+01
      4  0.356926D-01  0.874057D-01  0.228369D-02  0.255663D+00
      5  0.618782D-02  0.160682D+00  0.737237D-01  0.430281D-01  0.249497D+00
      6 -0.107964D-02 -0.678148D-02 -0.342329D-02  0.765798D-02 -0.511814D-02
                6 
      6  0.113042D-01
 Force constants in internal coordinates: 
                1             2             3             4             5 
      1  0.528099D+00
      2 -0.165136D-01  0.210814D+00
      3 -0.613593D-02  0.160460D+00  0.152397D+01
      4  0.356926D-01  0.874057D-01  0.228369D-02  0.255663D+00
      5  0.618782D-02  0.160682D+00  0.737237D-01  0.430281D-01  0.249497D+00
      6 -0.107964D-02 -0.678148D-02 -0.342329D-02  0.765798D-02 -0.511814D-02
                6 
      6  0.113042D-01
 Final forces over variables, Energy=-1.65450951D+02:
 -1.02668659D-04-7.72642316D-02 8.10802013D-02 1.32836277D-02
  9.86825588D-02-2.48578320D-03
 Leave Link  716 at Fri Apr 15 18:54:00 2022, MaxMem=   131072000 cpu:               0.0 elap:               0.0
 (Enter C:\G16W\l103.exe)

 GradGradGradGradGradGradGradGradGradGradGradGradGradGradGradGradGradGrad
 Berny optimization.
 Search for a local minimum.
 Step number   1 out of a maximum of    2
 All quantities printed in internal units (Hartrees-Bohrs-Radians)
 Second derivative matrix not updated -- analytic derivatives used.
 The second derivative matrix:
                          B1        B2        B3        A1        A2
           B1           0.52810
           B2          -0.01651   0.21081
           B3          -0.00614   0.16046   1.52397
           A1           0.03569   0.08741   0.00228   0.25566
           A2           0.00619   0.16068   0.07372   0.04303   0.24950
           D1          -0.00108  -0.00678  -0.00342   0.00766  -0.00512
                          D1
           D1           0.01130
 ITU=  0
     Eigenvalues ---    0.01043   0.05510   0.21334   0.41705   0.53321
     Eigenvalues ---    1.55022
 Quadratic step=2.533D+00 exceeds max=3.000D-01 adjusted using Lamda=-3.706D-01.
 Angle between NR and scaled steps=  22.52 degrees.
 Angle between quadratic step and forces=  23.78 degrees.
 Linear search not attempted -- first point.
 Variable       Old X    -DE/DX   Delta X   Delta X   Delta X     New X
                                 (Linear)    (Quad)   (Total)
    B1        1.98513  -0.00010   0.00000  -0.00649  -0.00649   1.97864
    B2        2.66303  -0.07726   0.00000  -0.20977  -0.20977   2.45327
    B3        2.16985   0.08108   0.00000   0.05252   0.05252   2.22237
    A1        1.85141   0.01328   0.00000   0.03670   0.03670   1.88810
    A2        2.33882   0.09868   0.00000   0.20472   0.20472   2.54354
    D1        3.36283  -0.00249   0.00000  -0.00777  -0.00777   3.35506
         Item               Value     Threshold  Converged?
 Maximum Force            0.098683     0.000450     NO 
 RMS     Force            0.061189     0.000300     NO 
 Maximum Displacement     0.209766     0.001800     NO 
 RMS     Displacement     0.122555     0.001200     NO 
 Predicted change in Energy=-3.728488D-02
                       ----------------------------
                       ! Non-Optimized Parameters !
                       ! (Angstroms and Degrees)  !
 ----------------------                            ----------------------
 !      Name          Value   Derivative information (Atomic Units)     !
 ------------------------------------------------------------------------
 !       B1          1.0471   -DE/DX =   -0.0001                        !
 !       B2          1.2982   -DE/DX =   -0.0773                        !
 !       B3          1.176    -DE/DX =    0.0811                        !
 !       A1        108.1804   -DE/DX =    0.0133                        !
 !       A2        145.7342   -DE/DX =    0.0987                        !
 !       D1        192.2305   -DE/DX =   -0.0025                        !
 ------------------------------------------------------------------------
 GradGradGradGradGradGradGradGradGradGradGradGradGradGradGradGradGradGrad

 Leave Link  103 at Fri Apr 15 18:54:00 2022, MaxMem=   131072000 cpu:               0.0 elap:               0.0
 (Enter C:\G16W\l9999.exe)

 ----------------------------------------------------------------------

 Electric dipole moment (input orientation):
 (Debye = 10**-18 statcoulomb cm , SI units = C m)
                  (au)            (Debye)         (10**-30 SI)
   Tot        0.793179D+00      0.201606D+01      0.672485D+01
   x          0.517172D+00      0.131452D+01      0.438477D+01
   y          0.380031D-01      0.965942D-01      0.322204D+00
   z         -0.600184D+00     -0.152552D+01     -0.508857D+01

 Dipole polarizability, Alpha (input orientation).
 (esu units = cm**3 , SI units = C**2 m**2 J**-1)
 Alpha(0;0):
               (au)            (10**-24 esu)      (10**-40 SI)
   iso        0.109965D+02      0.162952D+01      0.181308D+01
   aniso      0.171628D+02      0.254326D+01      0.282976D+01
   xx         0.161000D+02      0.238577D+01      0.265453D+01
   yx        -0.200688D-02     -0.297389D-03     -0.330890D-03
   yy         0.340836D+01      0.505067D+00      0.561962D+00
   zx         0.726981D+01      0.107727D+01      0.119863D+01
   zy        -0.661231D+00     -0.979843D-01     -0.109022D+00
   zz         0.134812D+02      0.199771D+01      0.222275D+01

 First dipole hyperpolarizability, Beta (input orientation).
 ||, _|_  parallel and perpendicular components, (z) with respect to z axis,
 vector components x,y,z.  Values do not include the 1/n! factor of 1/2.
 (esu units = statvolt**-1 cm**4 , SI units = C**3 m**3 J**-2)
 Beta(0;0,0):
               (au)            (10**-30 esu)      (10**-50 SI)
   || (z)    -0.362783D+01     -0.313416D-01     -0.116321D-01
   _|_(z)    -0.120928D+01     -0.104472D-01     -0.387737D-02
   x          0.156046D+03      0.134811D+01      0.500339D+00
   y          0.239495D+02      0.206905D+00      0.767907D-01
   z         -0.181391D+02     -0.156708D+00     -0.581606D-01
   ||         0.317823D+02      0.274574D+00      0.101906D+00
   xxx        0.427505D+02      0.369331D+00      0.137074D+00
   xxy        0.688506D+01      0.594815D-01      0.220760D-01
   yxy        0.140638D+02      0.121500D+00      0.450936D-01
   yyy       -0.177034D+01     -0.152943D-01     -0.567633D-02
   xxz        0.571508D+01      0.493738D-01      0.183246D-01
   yxz        0.450639D+01      0.389317D-01      0.144491D-01
   yyz        0.559579D+01      0.483433D-01      0.179421D-01
   zxz       -0.479906D+01     -0.414601D-01     -0.153875D-01
   zyz        0.286844D+01      0.247811D-01      0.919725D-02
   zzz       -0.173572D+02     -0.149953D+00     -0.556536D-01

 ----------------------------------------------------------------------

 Dipole orientation:
     1          0.00000000          0.00000000          0.00000000
     7          1.29435203         -0.09511217         -1.50211049
     6          3.71482063         -0.08494192         -0.39171899
     8          5.72539662          0.18524874         -1.16166745

 Electric dipole moment (dipole orientation):
 (Debye = 10**-18 statcoulomb cm , SI units = C m)
                  (au)            (Debye)         (10**-30 SI)
   Tot        0.793179D+00      0.201606D+01      0.672485D+01
   x          0.000000D+00      0.000000D+00      0.000000D+00
   y          0.000000D+00      0.000000D+00      0.000000D+00
   z          0.793179D+00      0.201606D+01      0.672485D+01

 Dipole polarizability, Alpha (dipole orientation).
 (esu units = cm**3 , SI units = C**2 m**2 J**-1)
 Alpha(0;0):
               (au)            (10**-24 esu)      (10**-40 SI)
   iso        0.109965D+02      0.162952D+01      0.181308D+01
   aniso      0.171628D+02      0.254326D+01      0.282976D+01
   xx         0.221839D+02      0.328732D+01      0.365763D+01
   yx         0.108213D+00      0.160355D-01      0.178418D-01
   yy         0.335990D+01      0.497886D+00      0.553972D+00
   zx         0.194251D+00      0.287851D-01      0.320277D-01
   zy        -0.309451D+00     -0.458559D-01     -0.510216D-01
   zz         0.744575D+01      0.110335D+01      0.122764D+01

 First dipole hyperpolarizability, Beta (dipole orientation).
 ||, _|_  parallel and perpendicular components, (z) with respect to z axis,
 vector components x,y,z.  Values do not include the 1/n! factor of 1/2.
 (esu units = statvolt**-1 cm**4 , SI units = C**3 m**3 J**-2)
 Beta(0;0,0):
               (au)            (10**-30 esu)      (10**-50 SI)
   || (z)     0.233237D+02      0.201499D+00      0.747843D-01
   _|_(z)     0.777458D+01      0.671663D-01      0.249281D-01
   x          0.106028D+03      0.915998D+00      0.339964D+00
   y         -0.202740D+02     -0.175152D+00     -0.650059D-01
   z          0.116619D+03      0.100749D+01      0.373922D+00
   ||         0.317823D+02      0.274574D+00      0.101906D+00
   xxx        0.150898D+02      0.130364D+00      0.483832D-01
   xxy       -0.817990D+01     -0.706680D-01     -0.262277D-01
   yxy        0.144933D+02      0.125211D+00      0.464709D-01
   yyy        0.170759D+01      0.147523D-01      0.547516D-02
   xxz        0.254484D+02      0.219854D+00      0.815966D-01
   yxz       -0.209738D+01     -0.181197D-01     -0.672495D-02
   yyz        0.489299D+01      0.422717D-01      0.156887D-01
   zxz        0.575953D+01      0.497578D-01      0.184671D-01
   zyz       -0.285707D+00     -0.246829D-02     -0.916080D-03
   zzz        0.853155D+01      0.737059D-01      0.273552D-01

 ----------------------------------------------------------------------

 Test job not archived.
 1|1|UNPC-DESKTOP-RNC6JTU|Freq|RHF|STO-3G|C1H1N1O1|BNULK|15-Apr-2022|1|
 |#p sto-3g scf=maxcycle=999 freq=noraman IOP(7/33=1) hf||T1||0,1|H|N,1
 ,B1|C,2,B2,1,A1|O,3,B3,2,A2,1,D1,0||B1=1.050484|B2=1.409216|B3=1.14823
 4|A1=106.077759|A2=134.004733|D1=192.675975||Version=EM64W-G16RevA.03|
 State=1-A|HF=-165.4509505|RMSD=4.125e-009|RMSF=6.156e-002|ZeroPoint=0.
 0205714|Thermal=0.024298|Dipole=0.5171721,0.0380031,-0.6001842|DipoleD
 eriv=0.2809503,-0.0175417,0.1637437,0.0253224,0.2862314,0.011691,0.073
 5531,0.0055375,-0.0666562,-0.5387235,0.1182021,-0.6604694,-0.0106983,-
 0.5315392,-0.0151438,-0.091661,-0.0023591,-0.1529452,0.6330413,-0.1280
 766,0.7497968,-0.139229,0.3621091,-0.0723545,0.524058,-0.0229268,0.686
 502,-0.3752682,0.0274162,-0.253071,0.1246049,-0.1168014,0.0758074,-0.5
 059501,0.0197484,-0.4669005|Polar=16.0999773,-0.0020069,3.4083581,7.26
 98078,-0.661231,13.48122|HyperPolar=42.7505032,6.8850551,14.063777,-1.
 7703351,5.7150763,4.5063904,5.5957915,-4.7990555,2.8684393,-17.3572456
 |Quadrupole=-1.2904486,0.190257,1.1001916,0.2816559,-0.4875777,0.14441
 46|PG=C01 [X(C1H1N1O1)]|NImag=0||0.06492888,0.00221160,0.00413007,0.02
 135087,-0.00122247,0.52809866,-0.03829843,-0.00594269,-0.04153444,0.15
 816932,-0.00355942,-0.00506843,0.00044741,-0.00873680,0.05072119,0.045
 23863,0.00133065,-0.51769747,0.09156193,-0.01062422,0.68309264,-0.0171
 5673,0.00202584,0.01974426,-0.00990037,0.00413031,-0.04256934,0.306321
 06,0.00027762,-0.00267142,0.00285317,0.00733705,-0.06683576,0.00102347
 ,-0.11033118,0.11744130,-0.07062953,-0.00190522,-0.01686254,0.05634693
 ,0.00486882,-0.12940394,0.56986126,-0.19566388,1.22200337,-0.00947372,
 0.00170526,0.00043930,-0.10997052,0.00816591,-0.09423121,-0.27926396,0
 .10271651,-0.55557866,0.39870820,0.00107020,0.00360977,-0.00207811,0.0
 0734244,0.02118300,0.00827010,0.10417504,-0.04793413,0.19270028,-0.112
 58768,0.02314136,0.00404003,0.00179703,0.00646134,-0.10637443,0.005307
 99,-0.03599123,-0.54703617,0.19178724,-1.07573689,0.64937057,-0.198892
 27,1.10526678||0.00669157,-0.00130318,-0.00010267,-0.09227274,-0.00743
 894,0.01804714,0.16382111,0.00443166,0.03210358,-0.07823995,0.00431046
 ,-0.05004805|||@


 SOME PHYSICISTS WOULD PREFER TO COME BACK TO THE IDEA OF AN OBJECTIVE
 REAL WORLD WHOSE SMALLEST PARTS EXIST OBJECTIVELY IN THE SAME SENSE AS
 STONES OR TREES EXIST INDEPENDENTLY OF WHETHER WE OBSERVE THEM.
 THIS, HOWEVER, IS IMPOSSIBLE.  -- WERNER HEISENBERG
 Job cpu time:       0 days  0 hours  0 minutes  2.0 seconds.
 Elapsed time:       0 days  0 hours  0 minutes  1.3 seconds.
 File lengths (MBytes):  RWF=      6 Int=      0 D2E=      0 Chk=      1 Scr=      1
 Normal termination of Gaussian 16 at Fri Apr 15 18:54:00 2022.
