 Entering Gaussian System, Link 0=g16
 Input=State1_0.gjf
 Output=State1_0.out
 Initial command:
 C:\G16W\l1.exe ".\Gau-14388.inp" "State1_0.out" /scrdir=".\"
 Entering Link 1 = C:\G16W\l1.exe PID=     12620.
  
 Copyright (c) 1988,1990,1992,1993,1995,1998,2003,2009,2016,
            Gaussian, Inc.  All Rights Reserved.
  
 This is part of the Gaussian(R) 16 program.  It is based on
 the Gaussian(R) 09 system (copyright 2009, Gaussian, Inc.),
 the Gaussian(R) 03 system (copyright 2003, Gaussian, Inc.),
 the Gaussian(R) 98 system (copyright 1998, Gaussian, Inc.),
 the Gaussian(R) 94 system (copyright 1995, Gaussian, Inc.),
 the Gaussian 92(TM) system (copyright 1992, Gaussian, Inc.),
 the Gaussian 90(TM) system (copyright 1990, Gaussian, Inc.),
 the Gaussian 88(TM) system (copyright 1988, Gaussian, Inc.),
 the Gaussian 86(TM) system (copyright 1986, Carnegie Mellon
 University), and the Gaussian 82(TM) system (copyright 1983,
 Carnegie Mellon University). Gaussian is a federally registered
 trademark of Gaussian, Inc.
  
 This software contains proprietary and confidential information,
 including trade secrets, belonging to Gaussian, Inc.
  
 This software is provided under written license and may be
 used, copied, transmitted, or stored only in accord with that
 written license.
  
 The following legend is applicable only to US Government
 contracts under FAR:
  
                    RESTRICTED RIGHTS LEGEND
  
 Use, reproduction and disclosure by the US Government is
 subject to restrictions as set forth in subparagraphs (a)
 and (c) of the Commercial Computer Software - Restricted
 Rights clause in FAR 52.227-19.
  
 Gaussian, Inc.
 340 Quinnipiac St., Bldg. 40, Wallingford CT 06492
  
  
 ---------------------------------------------------------------
 Warning -- This program may not be used in any manner that
 competes with the business of Gaussian, Inc. or will provide
 assistance to any competitor of Gaussian, Inc.  The licensee
 of this program is prohibited from giving any competitor of
 Gaussian, Inc. access to this program.  By using this program,
 the user acknowledges that Gaussian, Inc. is engaged in the
 business of creating and licensing software in the field of
 computational chemistry and represents and warrants to the
 licensee that it is not a competitor of Gaussian, Inc. and that
 it will not use this program in any manner prohibited above.
 ---------------------------------------------------------------
  

 Cite this work as:
 Gaussian 16, Revision A.03,
 M. J. Frisch, G. W. Trucks, H. B. Schlegel, G. E. Scuseria, 
 M. A. Robb, J. R. Cheeseman, G. Scalmani, V. Barone, 
 G. A. Petersson, H. Nakatsuji, X. Li, M. Caricato, A. V. Marenich, 
 J. Bloino, B. G. Janesko, R. Gomperts, B. Mennucci, H. P. Hratchian, 
 J. V. Ortiz, A. F. Izmaylov, J. L. Sonnenberg, D. Williams-Young, 
 F. Ding, F. Lipparini, F. Egidi, J. Goings, B. Peng, A. Petrone, 
 T. Henderson, D. Ranasinghe, V. G. Zakrzewski, J. Gao, N. Rega, 
 G. Zheng, W. Liang, M. Hada, M. Ehara, K. Toyota, R. Fukuda, 
 J. Hasegawa, M. Ishida, T. Nakajima, Y. Honda, O. Kitao, H. Nakai, 
 T. Vreven, K. Throssell, J. A. Montgomery, Jr., J. E. Peralta, 
 F. Ogliaro, M. J. Bearpark, J. J. Heyd, E. N. Brothers, K. N. Kudin, 
 V. N. Staroverov, T. A. Keith, R. Kobayashi, J. Normand, 
 K. Raghavachari, A. P. Rendell, J. C. Burant, S. S. Iyengar, 
 J. Tomasi, M. Cossi, J. M. Millam, M. Klene, C. Adamo, R. Cammi, 
 J. W. Ochterski, R. L. Martin, K. Morokuma, O. Farkas, 
 J. B. Foresman, and D. J. Fox, Gaussian, Inc., Wallingford CT, 2016.
 
 ******************************************
 Gaussian 16:  EM64W-G16RevA.03 17-Dec-2016
                15-Apr-2022 
 ******************************************
 %mem=1000mb
 %chk=LiuKun1.chk
 ------------------------------------------------------
 #p sto-3g scf=maxcycle=999 freq=noraman IOP(7/33=1) hf
 ------------------------------------------------------
 1/10=4,30=1,38=1/1,3;
 2/12=2,17=6,18=5,40=1/2;
 3/6=3,11=9,25=1,30=1,71=2,140=1/1,2,3;
 4//1;
 5/5=2,7=999,38=5,98=1/2;
 8/6=4,10=90,11=11/1;
 11/6=1,8=1,9=11,15=111,16=1/1,2,10;
 10/6=1/2;
 6/7=2,8=2,9=2,10=2,28=1/1;
 7/8=1,10=1,25=1,33=1/1,2,3,16;
 1/10=4,30=1/3;
 99//99;
 Leave Link    1 at Fri Apr 15 18:53:50 2022, MaxMem=   131072000 cpu:               0.0 elap:               0.1
 (Enter C:\G16W\l101.exe)
 --
 T1
 --
 Symbolic Z-matrix:
 Charge =  0 Multiplicity = 1
 H
 N                    1    B1
 C                    2    B2       1    A1
 O                    3    B3       2    A2       1    D1       0
       Variables:
  B1                    1.08                     
  B2                    1.5                      
  B3                    1.4                      
  A1                  107.69645                  
  A2                  134.13593                  
  D1                  182.                       
 
 ITRead=  0  0  0  0
 MicOpt= -1 -1 -1 -1
 NAtoms=      4 NQM=        4 NQMF=       0 NMMI=      0 NMMIF=      0
                NMic=       0 NMicF=      0.
                    Isotopes and Nuclear Properties:
 (Nuclear quadrupole moments (NQMom) in fm**2, nuclear magnetic moments (NMagM)
  in nuclear magnetons)

  Atom         1           2           3           4
 IAtWgt=           1          14          12          16
 AtmWgt=   1.0078250  14.0030740  12.0000000  15.9949146
 NucSpn=           1           2           0           0
 AtZEff=   0.0000000   0.0000000   0.0000000   0.0000000
 NQMom=    0.0000000   2.0440000   0.0000000   0.0000000
 NMagM=    2.7928460   0.4037610   0.0000000   0.0000000
 AtZNuc=   1.0000000   7.0000000   6.0000000   8.0000000
 Leave Link  101 at Fri Apr 15 18:53:50 2022, MaxMem=   131072000 cpu:               0.0 elap:               0.2
 (Enter C:\G16W\l103.exe)

 GradGradGradGradGradGradGradGradGradGradGradGradGradGradGradGradGradGrad
 Berny optimization.
 Initialization pass.
                       ----------------------------
                       !    Initial Parameters    !
                       ! (Angstroms and Degrees)  !
 ----------------------                            ----------------------
 !      Name          Value   Derivative information (Atomic Units)     !
 ------------------------------------------------------------------------
 !       B1          1.08     calculate D2E/DX2 analytically            !
 !       B2          1.5      calculate D2E/DX2 analytically            !
 !       B3          1.4      calculate D2E/DX2 analytically            !
 !       A1        107.6965   calculate D2E/DX2 analytically            !
 !       A2        134.1359   calculate D2E/DX2 analytically            !
 !       D1        182.0      calculate D2E/DX2 analytically            !
 ------------------------------------------------------------------------
 Trust Radius=3.00D-01 FncErr=1.00D-07 GrdErr=1.00D-07 EigMax=2.50D+02 EigMin=1.00D-04
 Number of steps in this run=      2 maximum allowed number of steps=      2.
 GradGradGradGradGradGradGradGradGradGradGradGradGradGradGradGradGradGrad

 Leave Link  103 at Fri Apr 15 18:53:50 2022, MaxMem=   131072000 cpu:               0.0 elap:               0.0
 (Enter C:\G16W\l202.exe)
                          Input orientation:                          
 ---------------------------------------------------------------------
 Center     Atomic      Atomic             Coordinates (Angstroms)
 Number     Number       Type             X           Y           Z
 ---------------------------------------------------------------------
      1          1           0        0.000000    0.000000    0.000000
      2          7           0        0.000000    0.000000    1.080000
      3          6           0        1.429020    0.000000    1.535961
      4          8           0        2.052560   -0.035066    2.788945
 ---------------------------------------------------------------------
                    Distance matrix (angstroms):
                    1          2          3          4
     1  H    0.000000
     2  N    1.080000   0.000000
     3  C    2.097922   1.500000   0.000000
     4  O    3.463011   2.671091   1.400000   0.000000
 Stoichiometry    CHNO
 Framework group  C1[X(CHNO)]
 Deg. of freedom     6
 Full point group                 C1      NOp   1
 Largest Abelian subgroup         C1      NOp   1
 Largest concise Abelian subgroup C1      NOp   1
                         Standard orientation:                         
 ---------------------------------------------------------------------
 Center     Atomic      Atomic             Coordinates (Angstroms)
 Number     Number       Type             X           Y           Z
 ---------------------------------------------------------------------
      1          1           0        2.038763    0.538960    0.023393
      2          7           0        1.307993   -0.255860   -0.001849
      3          6           0       -0.052590    0.375645   -0.005733
      4          8           0       -1.359897   -0.125227    0.002994
 ---------------------------------------------------------------------
 Rotational constants (GHZ):         161.7139005           8.7604206           8.3105154
 Leave Link  202 at Fri Apr 15 18:53:50 2022, MaxMem=   131072000 cpu:               0.0 elap:               0.0
 (Enter C:\G16W\l301.exe)
 Standard basis: STO-3G (5D, 7F)
 Ernie: Thresh=  0.10000D-02 Tol=  0.10000D-05 Strict=F.
 There are    16 symmetry adapted cartesian basis functions of A   symmetry.
 There are    16 symmetry adapted basis functions of A   symmetry.
    16 basis functions,    48 primitive gaussians,    16 cartesian basis functions
    11 alpha electrons       11 beta electrons
       nuclear repulsion energy        50.2202492225 Hartrees.
 IExCor=    0 DFT=F Ex=HF Corr=None ExCW=0 ScaHFX=  1.000000
 ScaDFX=  1.000000  1.000000  1.000000  1.000000 ScalE2=  1.000000  1.000000
 IRadAn=      5 IRanWt=     -1 IRanGd=            0 ICorTp=0 IEmpDi=  4
 NAtoms=    4 NActive=    4 NUniq=    4 SFac= 1.00D+00 NAtFMM=   60 NAOKFM=F Big=F
 Integral buffers will be    131072 words long.
 Raffenetti 1 integral format.
 Two-electron integral symmetry is turned on.
 Leave Link  301 at Fri Apr 15 18:53:50 2022, MaxMem=   131072000 cpu:               0.0 elap:               0.0
 (Enter C:\G16W\l302.exe)
 NPDir=0 NMtPBC=     1 NCelOv=     1 NCel=       1 NClECP=     1 NCelD=      1
         NCelK=      1 NCelE2=     1 NClLst=     1 CellRange=     0.0.
 One-electron integrals computed using PRISM.
 One-electron integral symmetry used in STVInt
 NBasis=    16 RedAO= T EigKep=  3.33D-01  NBF=    16
 NBsUse=    16 1.00D-06 EigRej= -1.00D+00 NBFU=    16
 Leave Link  302 at Fri Apr 15 18:53:51 2022, MaxMem=   131072000 cpu:               0.0 elap:               0.1
 (Enter C:\G16W\l303.exe)
 DipDrv:  MaxL=1.
 Leave Link  303 at Fri Apr 15 18:53:51 2022, MaxMem=   131072000 cpu:               0.0 elap:               0.0
 (Enter C:\G16W\l401.exe)
 ExpMin= 1.69D-01 ExpMax= 1.31D+02 ExpMxC= 1.31D+02 IAcc=3 IRadAn=         5 AccDes= 0.00D+00
 Harris functional with IExCor=  205 and IRadAn=       5 diagonalized for initial guess.
 HarFok:  IExCor=  205 AccDes= 0.00D+00 IRadAn=         5 IDoV= 1 UseB2=F ITyADJ=14
 ICtDFT=  3500011 ScaDFX=  1.000000  1.000000  1.000000  1.000000
 FoFCou: FMM=F IPFlag=           0 FMFlag=      100000 FMFlg1=           0
         NFxFlg=           0 DoJE=T BraDBF=F KetDBF=T FulRan=T
         wScrn=  0.000000 ICntrl=       500 IOpCl=  0 I1Cent=   200000004 NGrid=           0
         NMat0=    1 NMatS0=      1 NMatT0=    0 NMatD0=    1 NMtDS0=    0 NMtDT0=    0
 Petite list used in FoFCou.
 Harris En= -165.447264063231    
 JPrj=0 DoOrth=F DoCkMO=F.
 Leave Link  401 at Fri Apr 15 18:53:51 2022, MaxMem=   131072000 cpu:               0.0 elap:               0.2
 (Enter C:\G16W\l502.exe)
 Keep R1 ints in memory in canonical form, NReq=814098.
 FoFCou: FMM=F IPFlag=           0 FMFlag=           0 FMFlg1=           0
         NFxFlg=           0 DoJE=F BraDBF=F KetDBF=F FulRan=T
         wScrn=  0.000000 ICntrl=       600 IOpCl=  0 I1Cent=           0 NGrid=           0
         NMat0=    1 NMatS0=    136 NMatT0=    0 NMatD0=    1 NMtDS0=    0 NMtDT0=    0
 Symmetry not used in FoFCou.
 Two-electron integral symmetry not used.
 Closed shell SCF:
 Using DIIS extrapolation, IDIIS=  1040.
 NGot=   131072000 LenX=   131061257 LenY=   131060375
 Requested convergence on RMS density matrix=1.00D-08 within 999 cycles.
 Requested convergence on MAX density matrix=1.00D-06.
 Requested convergence on             energy=1.00D-06.
 No special actions if energy rises.

 Cycle   1  Pass 1  IDiag  1:
 E= -165.306906947482    
 DIIS: error= 4.90D-02 at cycle   1 NSaved=   1.
 NSaved= 1 IEnMin= 1 EnMin= -165.306906947482     IErMin= 1 ErrMin= 4.90D-02
 ErrMax= 4.90D-02  0.00D+00 EMaxC= 1.00D-01 BMatC= 4.74D-02 BMatP= 4.74D-02
 IDIUse=3 WtCom= 5.10D-01 WtEn= 4.90D-01
 Coeff-Com:  0.100D+01
 Coeff-En:   0.100D+01
 Coeff:      0.100D+01
 Gap=     0.345 Goal=   None    Shift=    0.000
 GapD=    0.345 DampG=1.000 DampE=0.500 DampFc=0.5000 IDamp=-1.
 Damping current iteration by 5.00D-01
 RMSDP=2.27D-02 MaxDP=1.31D-01              OVMax= 0.00D+00

 Cycle   2  Pass 1  IDiag  1:
 E= -165.329821553358     Delta-E=       -0.022914605876 Rises=F Damp=T
 DIIS: error= 1.56D-02 at cycle   2 NSaved=   2.
 NSaved= 2 IEnMin= 2 EnMin= -165.329821553358     IErMin= 2 ErrMin= 1.56D-02
 ErrMax= 1.56D-02  0.00D+00 EMaxC= 1.00D-01 BMatC= 6.23D-03 BMatP= 4.74D-02
 IDIUse=3 WtCom= 8.44D-01 WtEn= 1.56D-01
 Coeff-Com: -0.196D+00 0.120D+01
 Coeff-En:   0.000D+00 0.100D+01
 Coeff:     -0.166D+00 0.117D+01
 Gap=     0.425 Goal=   None    Shift=    0.000
 RMSDP=6.91D-03 MaxDP=4.34D-02 DE=-2.29D-02 OVMax= 0.00D+00

 Cycle   3  Pass 1  IDiag  1:
 E= -165.357120936625     Delta-E=       -0.027299383267 Rises=F Damp=F
 DIIS: error= 8.91D-03 at cycle   3 NSaved=   3.
 NSaved= 3 IEnMin= 3 EnMin= -165.357120936625     IErMin= 3 ErrMin= 8.91D-03
 ErrMax= 8.91D-03  0.00D+00 EMaxC= 1.00D-01 BMatC= 1.47D-03 BMatP= 6.23D-03
 IDIUse=3 WtCom= 9.11D-01 WtEn= 8.91D-02
 Coeff-Com: -0.183D+00 0.185D+00 0.998D+00
 Coeff-En:   0.000D+00 0.000D+00 0.100D+01
 Coeff:     -0.167D+00 0.169D+00 0.998D+00
 Gap=     0.430 Goal=   None    Shift=    0.000
 RMSDP=3.75D-03 MaxDP=2.59D-02 DE=-2.73D-02 OVMax= 0.00D+00

 Cycle   4  Pass 1  IDiag  1:
 E= -165.359900785518     Delta-E=       -0.002779848893 Rises=F Damp=F
 DIIS: error= 3.18D-03 at cycle   4 NSaved=   4.
 NSaved= 4 IEnMin= 4 EnMin= -165.359900785518     IErMin= 4 ErrMin= 3.18D-03
 ErrMax= 3.18D-03  0.00D+00 EMaxC= 1.00D-01 BMatC= 1.39D-04 BMatP= 1.47D-03
 IDIUse=3 WtCom= 9.68D-01 WtEn= 3.18D-02
 Coeff-Com:  0.117D+00-0.177D+00-0.780D+00 0.184D+01
 Coeff-En:   0.000D+00 0.000D+00 0.000D+00 0.100D+01
 Coeff:      0.113D+00-0.172D+00-0.756D+00 0.181D+01
 Gap=     0.437 Goal=   None    Shift=    0.000
 RMSDP=2.88D-03 MaxDP=1.70D-02 DE=-2.78D-03 OVMax= 0.00D+00

 Cycle   5  Pass 1  IDiag  1:
 E= -165.360567513223     Delta-E=       -0.000666727705 Rises=F Damp=F
 DIIS: error= 5.93D-04 at cycle   5 NSaved=   5.
 NSaved= 5 IEnMin= 5 EnMin= -165.360567513223     IErMin= 5 ErrMin= 5.93D-04
 ErrMax= 5.93D-04  0.00D+00 EMaxC= 1.00D-01 BMatC= 9.82D-06 BMatP= 1.39D-04
 IDIUse=3 WtCom= 9.94D-01 WtEn= 5.93D-03
 Coeff-Com:  0.322D-01-0.450D-01-0.215D+00 0.405D+00 0.823D+00
 Coeff-En:   0.000D+00 0.000D+00 0.000D+00 0.000D+00 0.100D+01
 Coeff:      0.320D-01-0.447D-01-0.213D+00 0.403D+00 0.824D+00
 Gap=     0.438 Goal=   None    Shift=    0.000
 RMSDP=4.53D-04 MaxDP=3.37D-03 DE=-6.67D-04 OVMax= 0.00D+00

 Cycle   6  Pass 1  IDiag  1:
 E= -165.360594727619     Delta-E=       -0.000027214396 Rises=F Damp=F
 DIIS: error= 5.12D-04 at cycle   6 NSaved=   6.
 NSaved= 6 IEnMin= 6 EnMin= -165.360594727619     IErMin= 6 ErrMin= 5.12D-04
 ErrMax= 5.12D-04  0.00D+00 EMaxC= 1.00D-01 BMatC= 4.53D-06 BMatP= 9.82D-06
 IDIUse=3 WtCom= 9.95D-01 WtEn= 5.12D-03
 Coeff-Com: -0.335D-01 0.512D-01 0.229D+00-0.571D+00 0.376D+00 0.950D+00
 Coeff-En:   0.000D+00 0.000D+00 0.000D+00 0.000D+00 0.000D+00 0.100D+01
 Coeff:     -0.333D-01 0.510D-01 0.227D+00-0.569D+00 0.374D+00 0.950D+00
 Gap=     0.438 Goal=   None    Shift=    0.000
 RMSDP=2.94D-04 MaxDP=1.72D-03 DE=-2.72D-05 OVMax= 0.00D+00

 Cycle   7  Pass 1  IDiag  1:
 E= -165.360608835705     Delta-E=       -0.000014108086 Rises=F Damp=F
 DIIS: error= 1.52D-04 at cycle   7 NSaved=   7.
 NSaved= 7 IEnMin= 7 EnMin= -165.360608835705     IErMin= 7 ErrMin= 1.52D-04
 ErrMax= 1.52D-04  0.00D+00 EMaxC= 1.00D-01 BMatC= 5.29D-07 BMatP= 4.53D-06
 IDIUse=3 WtCom= 9.98D-01 WtEn= 1.52D-03
 Coeff-Com:  0.165D-01-0.257D-01-0.113D+00 0.295D+00-0.257D+00-0.851D+00
 Coeff-Com:  0.193D+01
 Coeff-En:   0.000D+00 0.000D+00 0.000D+00 0.000D+00 0.000D+00 0.000D+00
 Coeff-En:   0.100D+01
 Coeff:      0.165D-01-0.257D-01-0.113D+00 0.295D+00-0.257D+00-0.850D+00
 Coeff:      0.193D+01
 Gap=     0.438 Goal=   None    Shift=    0.000
 RMSDP=2.29D-04 MaxDP=1.61D-03 DE=-1.41D-05 OVMax= 0.00D+00

 Cycle   8  Pass 1  IDiag  1:
 E= -165.360613217159     Delta-E=       -0.000004381453 Rises=F Damp=F
 DIIS: error= 8.62D-05 at cycle   8 NSaved=   8.
 NSaved= 8 IEnMin= 8 EnMin= -165.360613217159     IErMin= 8 ErrMin= 8.62D-05
 ErrMax= 8.62D-05  0.00D+00 EMaxC= 1.00D-01 BMatC= 1.46D-07 BMatP= 5.29D-07
 IDIUse=1 WtCom= 1.00D+00 WtEn= 0.00D+00
 Coeff-Com: -0.657D-02 0.100D-01 0.578D-01-0.149D+00 0.181D+00 0.461D+00
 Coeff-Com: -0.148D+01 0.193D+01
 Coeff:     -0.657D-02 0.100D-01 0.578D-01-0.149D+00 0.181D+00 0.461D+00
 Coeff:     -0.148D+01 0.193D+01
 Gap=     0.438 Goal=   None    Shift=    0.000
 RMSDP=1.39D-04 MaxDP=8.74D-04 DE=-4.38D-06 OVMax= 0.00D+00

 Cycle   9  Pass 1  IDiag  1:
 E= -165.360614628342     Delta-E=       -0.000001411183 Rises=F Damp=F
 DIIS: error= 5.91D-05 at cycle   9 NSaved=   9.
 NSaved= 9 IEnMin= 9 EnMin= -165.360614628342     IErMin= 9 ErrMin= 5.91D-05
 ErrMax= 5.91D-05  0.00D+00 EMaxC= 1.00D-01 BMatC= 4.20D-08 BMatP= 1.46D-07
 IDIUse=1 WtCom= 1.00D+00 WtEn= 0.00D+00
 Coeff-Com:  0.454D-02-0.663D-02-0.463D-01 0.118D+00-0.149D+00-0.415D+00
 Coeff-Com:  0.138D+01-0.258D+01 0.270D+01
 Coeff:      0.454D-02-0.663D-02-0.463D-01 0.118D+00-0.149D+00-0.415D+00
 Coeff:      0.138D+01-0.258D+01 0.270D+01
 Gap=     0.438 Goal=   None    Shift=    0.000
 RMSDP=1.54D-04 MaxDP=8.53D-04 DE=-1.41D-06 OVMax= 0.00D+00

 Cycle  10  Pass 1  IDiag  1:
 E= -165.360615420952     Delta-E=       -0.000000792611 Rises=F Damp=F
 DIIS: error= 1.78D-05 at cycle  10 NSaved=  10.
 NSaved=10 IEnMin=10 EnMin= -165.360615420952     IErMin=10 ErrMin= 1.78D-05
 ErrMax= 1.78D-05  0.00D+00 EMaxC= 1.00D-01 BMatC= 8.23D-09 BMatP= 4.20D-08
 IDIUse=1 WtCom= 1.00D+00 WtEn= 0.00D+00
 Coeff-Com: -0.177D-02 0.240D-02 0.258D-01-0.643D-01 0.989D-01 0.272D+00
 Coeff-Com: -0.100D+01 0.226D+01-0.291D+01 0.232D+01
 Coeff:     -0.177D-02 0.240D-02 0.258D-01-0.643D-01 0.989D-01 0.272D+00
 Coeff:     -0.100D+01 0.226D+01-0.291D+01 0.232D+01
 Gap=     0.438 Goal=   None    Shift=    0.000
 RMSDP=6.81D-05 MaxDP=2.79D-04 DE=-7.93D-07 OVMax= 0.00D+00

 Cycle  11  Pass 1  IDiag  1:
 E= -165.360615570754     Delta-E=       -0.000000149802 Rises=F Damp=F
 DIIS: error= 1.16D-05 at cycle  11 NSaved=  11.
 NSaved=11 IEnMin=11 EnMin= -165.360615570754     IErMin=11 ErrMin= 1.16D-05
 ErrMax= 1.16D-05  0.00D+00 EMaxC= 1.00D-01 BMatC= 2.35D-09 BMatP= 8.23D-09
 IDIUse=1 WtCom= 1.00D+00 WtEn= 0.00D+00
 Coeff-Com:  0.136D-02-0.184D-02-0.206D-01 0.508D-01-0.826D-01-0.206D+00
 Coeff-Com:  0.774D+00-0.178D+01 0.239D+01-0.235D+01 0.222D+01
 Coeff:      0.136D-02-0.184D-02-0.206D-01 0.508D-01-0.826D-01-0.206D+00
 Coeff:      0.774D+00-0.178D+01 0.239D+01-0.235D+01 0.222D+01
 Gap=     0.438 Goal=   None    Shift=    0.000
 RMSDP=3.10D-05 MaxDP=1.37D-04 DE=-1.50D-07 OVMax= 0.00D+00

 Cycle  12  Pass 1  IDiag  1:
 E= -165.360615609379     Delta-E=       -0.000000038624 Rises=F Damp=F
 DIIS: error= 7.77D-06 at cycle  12 NSaved=  12.
 NSaved=12 IEnMin=12 EnMin= -165.360615609379     IErMin=12 ErrMin= 7.77D-06
 ErrMax= 7.77D-06  0.00D+00 EMaxC= 1.00D-01 BMatC= 8.71D-10 BMatP= 2.35D-09
 IDIUse=1 WtCom= 1.00D+00 WtEn= 0.00D+00
 Coeff-Com: -0.648D-03 0.766D-03 0.139D-01-0.335D-01 0.614D-01 0.145D+00
 Coeff-Com: -0.560D+00 0.136D+01-0.190D+01 0.210D+01-0.280D+01 0.262D+01
 Coeff:     -0.648D-03 0.766D-03 0.139D-01-0.335D-01 0.614D-01 0.145D+00
 Coeff:     -0.560D+00 0.136D+01-0.190D+01 0.210D+01-0.280D+01 0.262D+01
 Gap=     0.438 Goal=   None    Shift=    0.000
 RMSDP=2.24D-05 MaxDP=1.13D-04 DE=-3.86D-08 OVMax= 0.00D+00

 Cycle  13  Pass 1  IDiag  1:
 E= -165.360615627344     Delta-E=       -0.000000017966 Rises=F Damp=F
 DIIS: error= 4.68D-06 at cycle  13 NSaved=  13.
 NSaved=13 IEnMin=13 EnMin= -165.360615627344     IErMin=13 ErrMin= 4.68D-06
 ErrMax= 4.68D-06  0.00D+00 EMaxC= 1.00D-01 BMatC= 3.30D-10 BMatP= 8.71D-10
 IDIUse=1 WtCom= 1.00D+00 WtEn= 0.00D+00
 Coeff-Com:  0.189D-03 0.270D-04-0.137D-01 0.318D-01-0.707D-01-0.155D+00
 Coeff-Com:  0.637D+00-0.165D+01 0.239D+01-0.280D+01 0.406D+01-0.432D+01
 Coeff-Com:  0.289D+01
 Coeff:      0.189D-03 0.270D-04-0.137D-01 0.318D-01-0.707D-01-0.155D+00
 Coeff:      0.637D+00-0.165D+01 0.239D+01-0.280D+01 0.406D+01-0.432D+01
 Coeff:      0.289D+01
 Gap=     0.438 Goal=   None    Shift=    0.000
 RMSDP=1.57D-05 MaxDP=8.26D-05 DE=-1.80D-08 OVMax= 0.00D+00

 Cycle  14  Pass 1  IDiag  1:
 E= -165.360615634952     Delta-E=       -0.000000007608 Rises=F Damp=F
 DIIS: error= 2.48D-06 at cycle  14 NSaved=  14.
 NSaved=14 IEnMin=14 EnMin= -165.360615634952     IErMin=14 ErrMin= 2.48D-06
 ErrMax= 2.48D-06  0.00D+00 EMaxC= 1.00D-01 BMatC= 1.29D-10 BMatP= 3.30D-10
 IDIUse=1 WtCom= 1.00D+00 WtEn= 0.00D+00
 Coeff-Com: -0.217D-04-0.939D-04 0.506D-02-0.114D-01 0.291D-01 0.536D-01
 Coeff-Com: -0.232D+00 0.618D+00-0.869D+00 0.104D+01-0.153D+01 0.175D+01
 Coeff-Com: -0.265D+01 0.279D+01
 Coeff:     -0.217D-04-0.939D-04 0.506D-02-0.114D-01 0.291D-01 0.536D-01
 Coeff:     -0.232D+00 0.618D+00-0.869D+00 0.104D+01-0.153D+01 0.175D+01
 Coeff:     -0.265D+01 0.279D+01
 Gap=     0.438 Goal=   None    Shift=    0.000
 RMSDP=1.76D-05 MaxDP=8.33D-05 DE=-7.61D-09 OVMax= 0.00D+00

 Cycle  15  Pass 1  IDiag  1:
 E= -165.360615638708     Delta-E=       -0.000000003755 Rises=F Damp=F
 DIIS: error= 6.03D-07 at cycle  15 NSaved=  15.
 NSaved=15 IEnMin=15 EnMin= -165.360615638708     IErMin=15 ErrMin= 6.03D-07
 ErrMax= 6.03D-07  0.00D+00 EMaxC= 1.00D-01 BMatC= 9.95D-12 BMatP= 1.29D-10
 IDIUse=1 WtCom= 1.00D+00 WtEn= 0.00D+00
 Coeff-Com: -0.409D-05-0.123D-05 0.283D-03-0.770D-03 0.373D-03 0.601D-02
 Coeff-Com: -0.190D-01 0.448D-01-0.754D-01 0.792D-01-0.119D+00 0.908D-01
 Coeff-Com:  0.385D+00-0.712D+00 0.132D+01
 Coeff:     -0.409D-05-0.123D-05 0.283D-03-0.770D-03 0.373D-03 0.601D-02
 Coeff:     -0.190D-01 0.448D-01-0.754D-01 0.792D-01-0.119D+00 0.908D-01
 Coeff:      0.385D+00-0.712D+00 0.132D+01
 Gap=     0.438 Goal=   None    Shift=    0.000
 RMSDP=1.56D-06 MaxDP=7.56D-06 DE=-3.76D-09 OVMax= 0.00D+00

 Cycle  16  Pass 1  IDiag  1:
 E= -165.360615638761     Delta-E=       -0.000000000053 Rises=F Damp=F
 DIIS: error= 1.74D-07 at cycle  16 NSaved=  16.
 NSaved=16 IEnMin=16 EnMin= -165.360615638761     IErMin=16 ErrMin= 1.74D-07
 ErrMax= 1.74D-07  0.00D+00 EMaxC= 1.00D-01 BMatC= 8.05D-13 BMatP= 9.95D-12
 IDIUse=1 WtCom= 1.00D+00 WtEn= 0.00D+00
 Coeff-Com:  0.864D-05-0.132D-04-0.319D-04 0.181D-03 0.721D-03-0.196D-02
 Coeff-Com:  0.380D-02-0.551D-02 0.154D-01-0.106D-01 0.214D-01 0.338D-03
 Coeff-Com: -0.315D+00 0.519D+00-0.119D+01 0.196D+01
 Coeff:      0.864D-05-0.132D-04-0.319D-04 0.181D-03 0.721D-03-0.196D-02
 Coeff:      0.380D-02-0.551D-02 0.154D-01-0.106D-01 0.214D-01 0.338D-03
 Coeff:     -0.315D+00 0.519D+00-0.119D+01 0.196D+01
 Gap=     0.438 Goal=   None    Shift=    0.000
 RMSDP=3.09D-07 MaxDP=1.33D-06 DE=-5.31D-11 OVMax= 0.00D+00

 Cycle  17  Pass 1  IDiag  1:
 E= -165.360615638765     Delta-E=       -0.000000000004 Rises=F Damp=F
 DIIS: error= 2.94D-08 at cycle  17 NSaved=  17.
 NSaved=17 IEnMin=17 EnMin= -165.360615638765     IErMin=17 ErrMin= 2.94D-08
 ErrMax= 2.94D-08  0.00D+00 EMaxC= 1.00D-01 BMatC= 2.68D-14 BMatP= 8.05D-13
 IDIUse=1 WtCom= 1.00D+00 WtEn= 0.00D+00
 Coeff-Com: -0.109D-05 0.167D-05-0.122D-05-0.171D-04-0.189D-03 0.347D-03
 Coeff-Com: -0.498D-03 0.320D-03-0.204D-02 0.778D-03-0.279D-02-0.796D-03
 Coeff-Com:  0.591D-01-0.952D-01 0.240D+00-0.528D+00 0.133D+01
 Coeff:     -0.109D-05 0.167D-05-0.122D-05-0.171D-04-0.189D-03 0.347D-03
 Coeff:     -0.498D-03 0.320D-03-0.204D-02 0.778D-03-0.279D-02-0.796D-03
 Coeff:      0.591D-01-0.952D-01 0.240D+00-0.528D+00 0.133D+01
 Gap=     0.438 Goal=   None    Shift=    0.000
 RMSDP=7.47D-08 MaxDP=3.91D-07 DE=-4.49D-12 OVMax= 0.00D+00

 Cycle  18  Pass 1  IDiag  1:
 E= -165.360615638765     Delta-E=        0.000000000000 Rises=F Damp=F
 DIIS: error= 5.54D-09 at cycle  18 NSaved=  18.
 NSaved=18 IEnMin=17 EnMin= -165.360615638765     IErMin=18 ErrMin= 5.54D-09
 ErrMax= 5.54D-09  0.00D+00 EMaxC= 1.00D-01 BMatC= 8.52D-16 BMatP= 2.68D-14
 IDIUse=1 WtCom= 1.00D+00 WtEn= 0.00D+00
 Large coefficients: NSaved= 18 BigCof=    0.00 CofMax=   10.00 Det=-5.63D-16
 Inversion failed.  Reducing to 17 matrices.
 Large coefficients: NSaved= 17 BigCof=    0.00 CofMax=   10.00 Det=-5.82D-16
 Inversion failed.  Reducing to 16 matrices.
 Large coefficients: NSaved= 16 BigCof=    0.00 CofMax=   10.00 Det=-5.85D-16
 Inversion failed.  Reducing to 15 matrices.
 Coeff-Com:  0.413D-05 0.341D-04-0.955D-04 0.192D-03-0.301D-03 0.802D-03
 Coeff-Com: -0.587D-03 0.131D-02-0.769D-03-0.105D-01 0.171D-01-0.486D-01
 Coeff-Com:  0.132D+00-0.456D+00 0.137D+01
 Coeff:      0.413D-05 0.341D-04-0.955D-04 0.192D-03-0.301D-03 0.802D-03
 Coeff:     -0.587D-03 0.131D-02-0.769D-03-0.105D-01 0.171D-01-0.486D-01
 Coeff:      0.132D+00-0.456D+00 0.137D+01
 Gap=     0.438 Goal=   None    Shift=    0.000
 RMSDP=9.83D-09 MaxDP=5.71D-08 DE= 0.00D+00 OVMax= 0.00D+00

 SCF Done:  E(RHF) =  -165.360615639     A.U. after   18 cycles
            NFock= 18  Conv=0.98D-08     -V/T= 2.0094
 KE= 1.638204363599D+02 PE=-4.909892081976D+02 EE= 1.115879069765D+02
 Leave Link  502 at Fri Apr 15 18:53:51 2022, MaxMem=   131072000 cpu:               0.0 elap:               0.1
 (Enter C:\G16W\l801.exe)
 Range of M.O.s used for correlation:     1    16
 NBasis=    16 NAE=    11 NBE=    11 NFC=     0 NFV=     0
 NROrb=     16 NOA=    11 NOB=    11 NVA=     5 NVB=     5
 Leave Link  801 at Fri Apr 15 18:53:51 2022, MaxMem=   131072000 cpu:               0.0 elap:               0.0
 (Enter C:\G16W\l1101.exe)
 Using compressed storage, NAtomX=     4.
 Will process      5 centers per pass.
 Leave Link 1101 at Fri Apr 15 18:53:51 2022, MaxMem=   131072000 cpu:               0.0 elap:               0.0
 (Enter C:\G16W\l1102.exe)
 Symmetrizing basis deriv contribution to polar:
 IMax=3 JMax=2 DiffMx= 0.00D+00
 Leave Link 1102 at Fri Apr 15 18:53:51 2022, MaxMem=   131072000 cpu:               0.0 elap:               0.0
 (Enter C:\G16W\l1110.exe)
 Forming Gx(P) for the SCF density, NAtomX=     4.
 Integral derivatives from FoFJK, PRISM(SPDF).
 Do as many integral derivatives as possible in FoFJK.
 G2DrvN: MDV=     131071592.
 G2DrvN: will do     5 centers at a time, making    1 passes.
 Calling FoFCou, ICntrl=  3107 FMM=F I1Cent=   0 AccDes= 0.00D+00.
 FoFJK:  IHMeth= 1 ICntrl=    3107 DoSepK=F KAlg= 0 I1Cent=           0 FoldK=F
 IRaf=         0 NMat=       1 IRICut=       1 DoRegI=T DoRafI=F ISym2E= 0 IDoP0=0 IntGTp=1.
 FoFCou: FMM=F IPFlag=           0 FMFlag=      100000 FMFlg1=           0
         NFxFlg=           0 DoJE=F BraDBF=F KetDBF=F FulRan=T
         wScrn=  0.000000 ICntrl=      3107 IOpCl=  0 I1Cent=           0 NGrid=           0
         NMat0=    1 NMatS0=      1 NMatT0=    0 NMatD0=    1 NMtDS0=    0 NMtDT0=    0
 Symmetry not used in FoFCou.
 End of G2Drv F.D. properties file   721 does not exist.
 End of G2Drv F.D. properties file   722 does not exist.
 End of G2Drv F.D. properties file   788 does not exist.
 Leave Link 1110 at Fri Apr 15 18:53:51 2022, MaxMem=   131072000 cpu:               0.0 elap:               0.1
 (Enter C:\G16W\l1002.exe)
 Minotr:  Closed shell wavefunction.
          IDoAtm=1111
          Direct CPHF calculation.
          Differentiating once with respect to electric field.
                with respect to dipole field.
          Differentiating once with respect to nuclear coordinates.
          Requested convergence is 1.0D-08 RMS, and 1.0D-07 maximum.
          Secondary convergence is 1.0D-12 RMS, and 1.0D-12 maximum.
          NewPWx=T KeepS1=F KeepF1=F KeepIn=T MapXYZ=F SortEE=F KeepMc=T.
 Keep R1 ints in memory in canonical form, NReq=814639.
 FoFCou: FMM=F IPFlag=           0 FMFlag=           0 FMFlg1=           0
         NFxFlg=           0 DoJE=F BraDBF=F KetDBF=F FulRan=T
         wScrn=  0.000000 ICntrl=       600 IOpCl=  0 I1Cent=           0 NGrid=           0
         NMat0=    1 NMatS0=    136 NMatT0=    0 NMatD0=    1 NMtDS0=    0 NMtDT0=    0
 Symmetry not used in FoFCou.
 Two-electron integral symmetry not used.
          MDV=     131072000 using IRadAn=       1.
          Solving linear equations simultaneously, MaxMat=       0.
          There are    15 degrees of freedom in the 1st order CPHF.  IDoFFX=6 NUNeed=     3.
     12 vectors produced by pass  0 Test12= 3.67D-16 6.67D-09 XBig12= 1.98D+01 3.19D+00.
 AX will form    12 AO Fock derivatives at one time.
     12 vectors produced by pass  1 Test12= 3.67D-16 6.67D-09 XBig12= 1.71D+00 6.15D-01.
     12 vectors produced by pass  2 Test12= 3.67D-16 6.67D-09 XBig12= 1.65D-02 5.57D-02.
     12 vectors produced by pass  3 Test12= 3.67D-16 6.67D-09 XBig12= 3.89D-05 2.21D-03.
      7 vectors produced by pass  4 Test12= 3.67D-16 6.67D-09 XBig12= 1.05D-07 1.33D-04.
 InvSVY:  IOpt=1 It=  1 EMax= 1.55D-15
 Solved reduced A of dimension    55 with    12 vectors.
 FullF1:  Do perturbations      1 to       3.
 Isotropic polarizability for W=    0.000000       14.31 Bohr**3.
 End of Minotr F.D. properties file   721 does not exist.
 End of Minotr F.D. properties file   722 does not exist.
 End of Minotr F.D. properties file   788 does not exist.
 Leave Link 1002 at Fri Apr 15 18:53:51 2022, MaxMem=   131072000 cpu:               0.0 elap:               0.1
 (Enter C:\G16W\l601.exe)
 Copying SCF densities to generalized density rwf, IOpCl= 0 IROHF=0.

 **********************************************************************

            Population analysis using the SCF density.

 **********************************************************************

 Orbital symmetries:
       Occupied  (A) (A) (A) (A) (A) (A) (A) (A) (A) (A) (A)
       Virtual   (A) (A) (A) (A) (A)
 The electronic state is 1-A.
 Alpha  occ. eigenvalues --  -20.33017 -15.33271 -11.17277  -1.27493  -1.06458
 Alpha  occ. eigenvalues --   -0.68872  -0.52785  -0.47366  -0.46232  -0.35759
 Alpha  occ. eigenvalues --   -0.31117
 Alpha virt. eigenvalues --    0.12720   0.21504   0.48987   0.64387   0.73778
          Condensed to atoms (all electrons):
               1          2          3          4
     1  H    0.594452   0.286376  -0.022182   0.000381
     2  N    0.286376   6.663995   0.324827  -0.007379
     3  C   -0.022182   0.324827   5.080386   0.348184
     4  O    0.000381  -0.007379   0.348184   7.800756
 Mulliken charges:
               1
     1  H    0.140973
     2  N   -0.267818
     3  C    0.268786
     4  O   -0.141942
 Sum of Mulliken charges =   0.00000
 Mulliken charges with hydrogens summed into heavy atoms:
               1
     2  N   -0.126845
     3  C    0.268786
     4  O   -0.141942
 APT charges:
               1
     1  H    0.189604
     2  N   -0.348895
     3  C    0.388118
     4  O   -0.228827
 Sum of APT charges =   0.00000
 APT charges with hydrogens summed into heavy atoms:
               1
     2  N   -0.159291
     3  C    0.388118
     4  O   -0.228827
 Electronic spatial extent (au):  <R**2>=            150.6270
 Charge=              0.0000 electrons
 Dipole moment (field-independent basis, Debye):
    X=              0.6998    Y=              1.8867    Z=              0.0296  Tot=              2.0125
 Quadrupole moment (field-independent basis, Debye-Ang):
   XX=            -16.1409   YY=            -14.4938   ZZ=            -15.0657
   XY=              1.8819   XZ=              0.0917   YZ=              0.0120
 Traceless Quadrupole moment (field-independent basis, Debye-Ang):
   XX=             -0.9074   YY=              0.7397   ZZ=              0.1677
   XY=              1.8819   XZ=              0.0917   YZ=              0.0120
 Octapole moment (field-independent basis, Debye-Ang**2):
  XXX=              2.2890  YYY=             -0.2708  ZZZ=              0.0235  XYY=             -1.9609
  XXY=              2.9174  XXZ=              0.1662  XZZ=             -2.1512  YZZ=             -0.0256
  YYZ=              0.0248  XYZ=              0.0017
 Hexadecapole moment (field-independent basis, Debye-Ang**3):
 XXXX=           -119.3794 YYYY=            -16.6267 ZZZZ=             -9.6568 XXXY=              6.7929
 XXXZ=              0.3049 YYYX=              1.6874 YYYZ=              0.0086 ZZZX=              0.0102
 ZZZY=              0.0012 XXYY=            -22.7733 XXZZ=            -23.8602 YYZZ=             -4.4196
 XXYZ=              0.0345 YYXZ=              0.0324 ZZXY=              0.4003
 N-N= 5.022024922254D+01 E-N=-4.909892082816D+02  KE= 1.638204363599D+02
  Exact polarizability:  30.116   1.494   8.578   0.248  -0.019   4.237
 Approx polarizability:  44.164  -0.058  11.048   0.103  -0.021   2.433
 No NMR shielding tensors so no spin-rotation constants.
 Leave Link  601 at Fri Apr 15 18:53:52 2022, MaxMem=   131072000 cpu:               0.0 elap:               0.1
 (Enter C:\G16W\l701.exe)
 SCFChk:  SCF convergence  9.83D-09 required  1.00D-08
 ... and contract with generalized density number  0.
 Compute integral second derivatives.
 Entering OneElI...
 Calculate overlap and kinetic energy integrals
    NBasis =  16  MinDer = 2  MaxDer = 2
 Requested accuracy = 0.1000D-12
 PrmmSu-InSpLW:  IPartL=    0 NPrtUS=    1 NPrtUL=    1 DoSpLW=F IThBeg=    0 IThEnd=    0 NThAct=    1.
 PrsmSu:  NPrtUS=   1 ThrOK=F IAlg=1 NPAlg=1 LenDen=           0 ISkipM=0 DoSpLW=F IThBeg=    0 IThEnd=    0.
 Prism:   IPart=     0 DynPar=F LinDyn=F Incr=           1.
 PRISM was handed   131065604 working-precision words and    27 shell-pairs
 IPart=  0 NShTot=          27 NBatch=           6 AvBLen=         4.5
 PrSmSu:  NxtVal=              2.
 Entering OneElI...
 Calculate potential energy integrals
    NBasis =  16  MinDer = 2  MaxDer = 2
 Requested accuracy = 0.1000D-12
 PrmmSu-InSpLW:  IPartL=    0 NPrtUS=    1 NPrtUL=    1 DoSpLW=F IThBeg=    0 IThEnd=    0 NThAct=    1.
 PrsmSu:  NPrtUS=   1 ThrOK=F IAlg=1 NPAlg=1 LenDen=           0 ISkipM=0 DoSpLW=F IThBeg=    0 IThEnd=    0.
 Prism:   IPart=     0 DynPar=F LinDyn=F Incr=           1.
 PRISM was handed   131065871 working-precision words and    27 shell-pairs
 IPart=  0 NShTot=         108 NBatch=          27 AvBLen=         4.0
 PrSmSu:  NxtVal=              2.
 Polarizability after L701:
                1             2             3 
      1  0.301156D+02
      2  0.149384D+01  0.857825D+01
      3  0.248298D+00 -0.186301D-01  0.423693D+01
 Dipole Derivatives after L701:
                 1             2             3             4             5 
      1   0.299311D+00 -0.229159D+00  0.687861D-02 -0.652757D+00  0.523337D+00
      2  -0.967786D-01 -0.341555D-01 -0.108184D-01  0.101842D-01  0.662568D-01
      3  -0.331125D-02 -0.726959D-02  0.303657D+00  0.104546D-01  0.395430D-02
                 6             7             8             9            10 
      1  -0.722489D-03  0.894231D+00 -0.212806D+00 -0.199954D-01 -0.540784D+00
      2   0.116470D-01 -0.152314D-01  0.900950D-02  0.291021D-02  0.101826D+00
      3  -0.460186D+00 -0.870482D-02  0.476723D-02  0.261114D+00  0.156143D-02
                11            12 
      1  -0.813722D-01  0.138392D-01
      2  -0.411108D-01 -0.373881D-02
      3  -0.145193D-02 -0.104585D+00
 Hessian after L701:
                1             2             3             4             5 
      1  0.143703D+01
      2 -0.892312D+00  0.146299D+01
      3 -0.293286D-01 -0.294005D-01  0.231503D+01
      4 -0.152709D+01  0.777594D+00  0.250925D-01 -0.144759D+01
      5  0.970322D+00 -0.145701D+01  0.306537D-01  0.247289D+01  0.486848D+01
      6  0.300915D-01  0.280140D-01 -0.228423D+01 -0.509441D-01 -0.402510D-01
      7 -0.658517D-02  0.436496D-01  0.235849D-02  0.213341D+01 -0.323612D+01
      8 -0.119114D+00  0.190015D-02 -0.186457D-02 -0.325365D+01 -0.298211D+01
      9 -0.146920D-02  0.133333D-02 -0.585120D-02  0.294290D-01  0.886911D-02
     10  0.966520D-01  0.710680D-01  0.187766D-02  0.841279D+00 -0.207088D+00
     11  0.411031D-01 -0.787931D-02  0.611397D-03  0.316672D-02 -0.429367D+00
     12  0.706288D-03  0.531653D-04 -0.249467D-01 -0.357740D-02  0.728237D-03
                6             7             8             9            10 
      6  0.788387D+01
      7  0.236581D-01 -0.569487D+01
      8  0.130309D-01 -0.860169D+00  0.843962D+01
      9 -0.520297D+01  0.361317D-01  0.379515D-01  0.116652D+02
     10 -0.280552D-02  0.356805D+01  0.423293D+01 -0.640915D-01 -0.450598D+01
     11 -0.793893D-03  0.405264D+01 -0.545941D+01 -0.481539D-01 -0.409691D+01
     12 -0.396671D+00 -0.621483D-01 -0.491178D-01 -0.645636D+01  0.650194D-01
               11            12 
     11  0.589666D+01
     12  0.483364D-01  0.687798D+01
 Leave Link  701 at Fri Apr 15 18:53:52 2022, MaxMem=   131072000 cpu:               0.0 elap:               0.1
 (Enter C:\G16W\l702.exe)
 L702 exits ... SP integral derivatives will be done elsewhere.
 Leave Link  702 at Fri Apr 15 18:53:52 2022, MaxMem=   131072000 cpu:               0.0 elap:               0.0
 (Enter C:\G16W\l703.exe)
 Integral derivatives from FoFJK, PRISM(SPDF).
 Compute integral second derivatives, UseDBF=F ICtDFT=           0.
 ICntrl=    100127.
 Calling FoFJK, ICntrl=    100127 FMM=F ISym2X=0 I1Cent= 0 IOpClX= 0 NMat=1 NMatS=1 NMatT=0.
 FoFJK:  IHMeth= 1 ICntrl=  100127 DoSepK=F KAlg= 0 I1Cent=           0 FoldK=F
 IRaf=         0 NMat=       1 IRICut=       1 DoRegI=T DoRafI=F ISym2E= 0 IDoP0=0 IntGTp=1.
 FoFCou: FMM=F IPFlag=           0 FMFlag=      100000 FMFlg1=         800
         NFxFlg=           0 DoJE=F BraDBF=F KetDBF=F FulRan=T
         wScrn=  0.000000 ICntrl=    100127 IOpCl=  0 I1Cent=           0 NGrid=           0
         NMat0=    1 NMatS0=      1 NMatT0=    0 NMatD0=    1 NMtDS0=    0 NMtDT0=    0
 Symmetry not used in FoFCou.
 FoFCou:  KetSym=F NOpSet=  1 NOpAb=1 NOp=  1.
 FoFCou:  CnvScl= 1.00D+00 Thresh= 1.00D-12 IAcrcy=      10.
 PrismS was handed   131066252 working-precision words and    27 shell-pairs
 FoFCou: LinMIO=F DoNuc=F BraDBF=F KetDBF=F HaveP=T PDBF=F HaveZ=T HaveW=F
         NIJTC =       3 NIJTAt=       0 NIJTCD=       0 NIJTT =       3
         IJTBeg=       1 IJTEnd=       3 KLTBeg=       1 KLTEnd=       3
         IPTBeg=       1 IPTEnd=       3 IPTBCv=       1 IPTECv=       3
         IZTBeg=       1 IZTEnd=       3 IZTBCv=       1 IZTECv=       3
         IWTBeg=       4 IWTEnd=       3 IWTBCv=       4 IWTECv=       3
         INTBeg=       1 INTEnd=       0 IFTBCv=       1 IFTECv=       3
 NCel replicated for PrismC:     1
 CoulSu-InSpLW:  IPartL=    0 NPrtUS=    1 NPrtUL=    1 DoSpLW=F IThBeg=    0 IThEnd=    0 NThAct=    1.
 CoulSu:  IncDef=  1024 NBBP=            378 NTPThr=   100 NPartT=    1 Incr=           3 LDynOK=F GPUOK=T.
 CoulSu:  NPrtUS=   1 ThrOK=F IAlg=1 NPAlg=1 LenDen=           0 LWGrdD=           0 DoCopy=F ISkipM=0
          DoSpLW=F IThBeg=    0 IThEnd=    0.
 Enter PrismC:  IPart=  0 JobTyp=22 DoJE=F Cont=F.
 PrismC:  IPart=     0 DynPar=F LinDyn=F Incr=           3 UseFst=F UseS4=T ISplat=2.
 PrismC was handed   131066163 working-precision words and    27 shell-pairs
 IPart=  0 NShTot=         373 NShNF=         373 NShFF=           0 MinMC=      10
           NShCPU=         373 NBCPU=          51 AvBCPU=         7.3
           NShGPU=           0 NBGPU=           0 AvBGPU=         0.0
 CoulSu:  NxtVal=              4 LenVP=      131066164 MinMC=      10.
 Polarizability after L703:
                1             2             3 
      1  0.301156D+02
      2  0.149384D+01  0.857825D+01
      3  0.248298D+00 -0.186301D-01  0.423693D+01
 Dipole Derivatives after L703:
                 1             2             3             4             5 
      1   0.299311D+00 -0.229159D+00  0.687861D-02 -0.652757D+00  0.523337D+00
      2  -0.967786D-01 -0.341555D-01 -0.108184D-01  0.101842D-01  0.662568D-01
      3  -0.331125D-02 -0.726959D-02  0.303657D+00  0.104546D-01  0.395430D-02
                 6             7             8             9            10 
      1  -0.722489D-03  0.894231D+00 -0.212806D+00 -0.199954D-01 -0.540784D+00
      2   0.116470D-01 -0.152314D-01  0.900950D-02  0.291021D-02  0.101826D+00
      3  -0.460186D+00 -0.870482D-02  0.476723D-02  0.261114D+00  0.156143D-02
                11            12 
      1  -0.813722D-01  0.138392D-01
      2  -0.411108D-01 -0.373881D-02
      3  -0.145193D-02 -0.104585D+00
 Hessian after L703:
                1             2             3             4             5 
      1  0.252543D+00
      2  0.196397D+00  0.265085D+00
      3  0.700893D-02  0.735797D-02  0.116176D-01
      4 -0.229659D+00 -0.233671D+00 -0.838093D-02  0.223846D+00
      5 -0.165014D+00 -0.271712D+00 -0.655904D-02  0.292915D+00  0.327574D+00
      6 -0.627860D-02 -0.796020D-02 -0.927525D-02  0.737577D-02  0.813740D-02
      7 -0.168902D-01  0.296388D-01  0.154140D-02  0.182390D+00 -0.165266D+00
      8 -0.345465D-01  0.788582D-02 -0.754464D-03 -0.200645D-01 -0.849002D-01
      9 -0.735746D-03  0.848334D-03 -0.308834D-02  0.103796D-02 -0.211141D-02
     10 -0.599331D-02  0.763534D-02 -0.169395D-03 -0.176576D+00  0.373648D-01
     11  0.316349D-02 -0.125891D-02 -0.444616D-04 -0.391798D-01  0.290388D-01
     12  0.541202D-05 -0.246099D-03  0.745989D-03 -0.327966D-04  0.533051D-03
                6             7             8             9            10 
      6  0.732276D-01
      7 -0.850113D-03 -0.270919D+00
      8 -0.164580D-03  0.526011D-01  0.189205D+00
      9 -0.718059D-01 -0.377069D-03  0.148143D-02  0.186393D+00
     10 -0.247060D-03  0.105420D+00  0.200987D-02  0.748570D-04  0.771493D-01
     11 -0.126206D-04  0.830262D-01 -0.112191D+00 -0.218356D-03 -0.470100D-01
     12  0.785356D-02 -0.314214D-03 -0.562389D-03 -0.111499D+00  0.341598D-03
               11            12 
     11  0.844108D-01
     12  0.275438D-03  0.102900D+00
 Leave Link  703 at Fri Apr 15 18:53:52 2022, MaxMem=   131072000 cpu:               0.0 elap:               0.1
 (Enter C:\G16W\l716.exe)
 FrcOut:
 IF    =        41 IFX   =        53 IFXYZ =        65
 IFFX  =        77 IFFFX =       155 IFLen =        12
 IFFLen=        78 IFFFLn=         0 IEDerv=       155
 LEDerv=       629 IFroze=       954 ICStrt=      1551
 Dipole        = 2.75332023D-01 7.42273916D-01 1.16276100D-02
 DipoleDeriv   = 2.99310507D-01-9.67785685D-02-3.31124869D-03
                -2.29158926D-01-3.41555154D-02-7.26959115D-03
                 6.87860669D-03-1.08183939D-02 3.03657147D-01
                -6.52756931D-01 1.01841500D-02 1.04546460D-02
                 5.23337476D-01 6.62568029D-02 3.95429515D-03
                -7.22488709D-04 1.16469992D-02-4.60186341D-01
                 8.94230562D-01-1.52313922D-02-8.70482347D-03
                -2.12806377D-01 9.00950434D-03 4.76722850D-03
                -1.99953580D-02 2.91020738D-03 2.61114208D-01
                -5.40784138D-01 1.01825811D-01 1.56142619D-03
                -8.13721722D-02-4.11107919D-02-1.45193249D-03
                 1.38392400D-02-3.73881269D-03-1.04585014D-01
 Polarizability= 3.01155911D+01 1.49383871D+00 8.57824531D+00
                 2.48298183D-01-1.86301344D-02 4.23693417D+00
 HyperPolar    = 4.09128549D-01 4.57052303D+01 2.10690718D+00
                 5.43352675D+00-3.05884747D+00 1.98873204D+00
                -4.84484599D-01-3.05186605D+01 7.84912734D+00
                 4.57344894D-01
 Quadrupole    =-6.74627239D-01 5.49922131D-01 1.24705108D-01
                 1.39912897D+00 6.81428284D-02 8.90534554D-03
 VibFq2-Diag1:  N=     12 IV=           5 MDV=   131069605 NE2=    10922466
 Full mass-weighted force constant matrix:
 Low frequencies ----1016.5989    0.0010    0.0011    0.0012  348.4870  386.5873
 Low frequencies ---  565.0586  605.4241  724.3640
 OrtVCM:  Ph=1 IPass= 1 DotMx1= 0.00D+00
 OrtVCM:  IS=    1 I=    1 IndO=    1 Dot= 1.00D+00 DotN= 1.00D+00 ElMax1= 6.10D-01 ElMax1N= 6.10D-01
 OrtVCM:  Ph=2 NNew=    0 IAdd=    2 IPass= 1 DotMx2= 0.00D+00
 OrtVCM:  IS=    1 I=    2 IndO=    2 Dot= 1.00D+00 DotN= 1.00D+00 ElMax1= 6.10D-01 ElMax1N= 6.10D-01
 OrtVCM:  Ph=2 NNew=    0 IAdd=    3 IPass= 1 DotMx2= 0.00D+00
 OrtVCM:  IS=    1 I=    3 IndO=    3 Dot= 1.00D+00 DotN= 1.00D+00 ElMax1= 6.10D-01 ElMax1N= 6.10D-01
 OrtVCM:  Ph=2 NNew=    0 IAdd=    4 IPass= 1 DotMx2= 1.94D-16
 OrtVCM:  IS=    1 I=    4 IndO=    4 Dot= 1.00D+00 DotN= 1.00D+00 ElMax1= 7.60D-01 ElMax1N= 7.60D-01
 OrtVCM:  Ph=2 NNew=    0 IAdd=    5 IPass= 1 DotMx2= 5.27D-16
 OrtVCM:  IS=    1 I=    5 IndO=    5 Dot= 1.00D+00 DotN= 1.00D+00 ElMax1= 6.90D-01 ElMax1N= 6.90D-01
 OrtVCM:  Ph=2 NNew=    0 IAdd=    6 IPass= 1 DotMx2= 4.22D-16
 OrtVCM:  IS=    1 I=    6 IndO=    6 Dot= 1.00D+00 DotN= 1.00D+00 ElMax1= 6.73D-01 ElMax1N= 6.73D-01
 OrtVCM:  Ph=1 IPass= 1 DotMx1= 6.70D-01
 OrtVCM:  Ph=1 IPass= 2 DotMx1= 1.91D-16
 OrtVCM:  IS=    1 I=    1 IndO=    7 Dot= 9.72D-01 DotN= 9.72D-01 ElMax1= 9.72D-01 ElMax1N= 9.72D-01
 OrtVCM:  Ph=2 NNew=    0 IAdd=    2 IPass= 1 DotMx2= 1.93D-02
 OrtVCM:  Ph=2 NNew=    0 IAdd=    2 IPass= 2 DotMx2= 1.60D-18
 OrtVCM:  IS=    1 I=    2 IndO=    8 Dot= 9.04D-01 DotN= 9.04D-01 ElMax1= 9.04D-01 ElMax1N= 9.04D-01
 OrtVCM:  Ph=2 NNew=    0 IAdd=    3 IPass= 1 DotMx2= 5.10D-03
 OrtVCM:  Ph=2 NNew=    0 IAdd=    3 IPass= 2 DotMx2= 5.42D-19
 OrtVCM:  IS=    1 I=    3 IndO=    9 Dot= 7.88D-01 DotN= 7.88D-01 ElMax1= 7.88D-01 ElMax1N= 7.88D-01
 OrtVCM:  Ph=2 NNew=    0 IAdd=    4 IPass= 1 DotMx2= 8.02D-02
 OrtVCM:  Ph=2 NNew=    0 IAdd=    4 IPass= 2 DotMx2= 1.38D-17
 OrtVCM:  IS=    1 I=    4 IndO=   10 Dot= 6.53D-01 DotN= 6.53D-01 ElMax1= 6.53D-01 ElMax1N= 6.53D-01
 OrtVCM:  Ph=2 NNew=    0 IAdd=    5 IPass= 1 DotMx2= 2.76D-01
 OrtVCM:  Ph=2 NNew=    0 IAdd=    5 IPass= 2 DotMx2= 6.15D-17
 OrtVCM:  IS=    1 I=    5 IndO=   11 Dot= 1.63D-01 DotN= 1.63D-01 ElMax1= 3.23D-01 ElMax1N= 3.23D-01
 OrtVCM:  Ph=2 NNew=    0 IAdd=    6 IPass= 1 DotMx2= 1.32D-01
 OrtVCM:  Ph=2 NNew=    0 IAdd=    6 IPass= 2 DotMx2= 2.77D-17
 OrtVCM:  IS=    1 I=    6 IndO=    0 Dot= 6.66D-34 DotN= 6.66D-34 ElMax1= 1.92D-17 ElMax1N= 1.92D-17
 SchOr2:  IPass= 1 Test2A= 1.00D-01 IOff=     0 NDo=     6 NNew=     5
 OrtVCM:  Ph=1 IPass= 1 DotMx1= 5.28D-01
 OrtVCM:  Ph=1 IPass= 2 DotMx1= 1.11D-16
 OrtVCM:  IS=    1 I=    1 IndO=   12 Dot= 4.98D-01 DotN= 4.98D-01 ElMax1= 4.98D-01 ElMax1N= 4.98D-01
 SchOr2:  IPass= 1 Test2A= 1.00D-01 IOff=     6 NDo=     1 NNew=     1
 VibFq2-Diag2:  N=      6 IV=           5 MDV=   131069605 NE2=    21844933
 ******    1 imaginary frequencies (negative Signs) ****** 
 Dipole derivative wrt mode   1:  1.15481D+01 -1.22111D-01 -1.74839D-01
 Vibrational polarizability contributions from mode   1       3.4969044       0.0003910       0.0008016
 Dipole derivative wrt mode   2:  6.27027D-01 -5.77534D-01  7.35171D+00
 Vibrational polarizability contributions from mode   2       0.0295547       0.0250731       4.0628560
 Dipole derivative wrt mode   3: -7.20904D-01  8.15186D-01  2.63857D+00
 Vibrational polarizability contributions from mode   3       0.0380976       0.0487143       0.5103648
 Dipole derivative wrt mode   4:  1.27221D+00 -2.09477D-02 -1.21563D-01
 Vibrational polarizability contributions from mode   4       0.0837464       0.0000227       0.0007646
 Dipole derivative wrt mode   5:  1.15142D+01 -1.33993D+00  5.01452D-02
 Vibrational polarizability contributions from mode   5       1.8836988       0.0255098       0.0000357
 Dipole derivative wrt mode   6:  1.48542D+00 -2.86783D+00 -1.72856D-02
 Vibrational polarizability contributions from mode   6       0.0046373       0.0172850       0.0000006
 Diagonal vibrational polarizability:
        5.5366392       0.1169959       4.5748233
 NorSel:  MapVib=      1      2      3      4      5      6
 Harmonic frequencies (cm**-1), IR intensities (KM/Mole), Raman scattering
 activities (A**4/AMU), depolarization ratios for plane and unpolarized
 incident light, reduced masses (AMU), force constants (mDyne/A),
 and normal coordinates:
                      1                      2                      3
                      A                      A                      A
 Frequencies --  -1013.0585               598.3283               605.8917
 Red. masses --     12.2660                 1.4009                 5.9851
 Frc consts  --      7.4169                 0.2955                 1.2945
 IR Inten    --    133.4037                54.7744                 8.1463
  Atom  AN      X      Y      Z        X      Y      Z        X      Y      Z
     1   1    -0.04  -0.19  -0.03     0.04  -0.01   0.98    -0.31  -0.07   0.73
     2   7    -0.41   0.20   0.00     0.07  -0.01  -0.04    -0.38   0.06  -0.03
     3   6     0.82  -0.07   0.00     0.02   0.03  -0.12    -0.08  -0.13  -0.09
     4   8    -0.25  -0.11   0.00    -0.07  -0.01   0.06     0.41   0.05   0.05
                      4                      5                      6
                      A                      A                      A
 Frequencies --    721.1753              1376.2443              3578.3644
 Red. masses --      6.3812                 1.1858                 1.0758
 Frc consts  --      1.9554                 1.3233                 8.1161
 IR Inten    --      1.6337               134.3753                10.4312
  Atom  AN      X      Y      Z        X      Y      Z        X      Y      Z
     1   1     0.37  -0.64  -0.03     0.76  -0.64   0.00     0.69   0.72   0.02
     2   7    -0.14  -0.17   0.01     0.00   0.09   0.00    -0.05  -0.05   0.00
     3   6     0.00   0.58   0.00    -0.05  -0.06   0.00     0.00   0.00   0.00
     4   8     0.10  -0.25   0.00    -0.01   0.01   0.00     0.00   0.00   0.00

 -------------------
 - Thermochemistry -
 -------------------
 Temperature   298.150 Kelvin.  Pressure   1.00000 Atm.
 Atom     1 has atomic number  1 and mass   1.00783
 Atom     2 has atomic number  7 and mass  14.00307
 Atom     3 has atomic number  6 and mass  12.00000
 Atom     4 has atomic number  8 and mass  15.99491
 Molecular mass:    43.00581 amu.
 Principal axes and moments of inertia in atomic units:
                           1         2         3
     Eigenvalues --    11.16009 206.01079 217.16357
           X            0.99979   0.02047   0.00092
           Y           -0.02048   0.99978   0.00440
           Z           -0.00083  -0.00441   0.99999
 This molecule is an asymmetric top.
 Rotational symmetry number  1.
 Rotational temperatures (Kelvin)      7.76104     0.42043     0.39884
 Rotational constants (GHZ):         161.71390     8.76042     8.31052
    1 imaginary frequencies ignored.
 Zero-point vibrational energy      41151.6 (Joules/Mol)
                                    9.83546 (Kcal/Mol)
 Warning -- explicit consideration of   2 degrees of freedom as
           vibrations may cause significant error
 Vibrational temperatures:    860.86   871.74  1037.61  1980.11  5148.47
          (Kelvin)
 
 Zero-point correction=                           0.015674 (Hartree/Particle)
 Thermal correction to Energy=                    0.018937
 Thermal correction to Enthalpy=                  0.019881
 Thermal correction to Gibbs Free Energy=        -0.008264
 Sum of electronic and zero-point Energies=           -165.344942
 Sum of electronic and thermal Energies=              -165.341679
 Sum of electronic and thermal Enthalpies=            -165.340735
 Sum of electronic and thermal Free Energies=         -165.368880
 
                     E (Thermal)             CV                S
                      KCal/Mol        Cal/Mol-Kelvin    Cal/Mol-Kelvin
 Total                   11.883              8.920             59.237
 Electronic               0.000              0.000              0.000
 Translational            0.889              2.981             37.203
 Rotational               0.889              2.981             20.840
 Vibrational             10.105              2.959              1.194
 Vibration     1          0.956              1.035              0.453
 Vibration     2          0.965              1.019              0.440
                       Q            Log10(Q)             Ln(Q)
 Total Bot       0.632936D+04          3.801360          8.752955
 Total V=0       0.102518D+12         11.010802         25.353309
 Vib (Bot)       0.713834D-07         -7.146403        -16.455200
 Vib (Bot)    1  0.249990D+00         -0.602077         -1.386334
 Vib (Bot)    2  0.244951D+00         -0.610920         -1.406696
 Vib (V=0)       0.115622D+01          0.063040          0.145154
 Vib (V=0)    1  0.105901D+01          0.024901          0.057337
 Vib (V=0)    2  0.105678D+01          0.023984          0.055224
 Electronic      0.100000D+01          0.000000          0.000000
 Translational   0.110852D+08          7.044745         16.221124
 Rotational      0.799867D+04          3.903018          8.987031
 Write normal modes, IRwNMS=   765 IRotNM=-1 NVibU=     6.
 
                                                                  T1
                                                             IR Spectrum
 
      3                                                                             1                                                
      5                                                                             3                      7  65                     
      7                                                                             7                      2  09                     
      8                                                                             6                      1  68                     
 
      X                                                                             X                      X  XX                     
      X                                                                             X                          X                     
                                                                                    X                          X                     
                                                                                    X                          X                     
                                                                                    X                          X                     
                                                                                    X                          X                     
                                                                                    X                          X                     
                                                                                    X                          X                     
                                                                                    X                                                
                                                                                    X                                                
                                                                                    X                                                
                                                                                    X                                                
                                                                                    X                                                
                                                                                    X                                                
                                                                                    X                                                
                                                                                    X                                                
                                                                                    X                                                
                                                                                    X                                                
                                                                                    X                                                
                                                                                    X                                                
 
 Forces in standard orientation:
 -------------------------------------------------------------------
 Center     Atomic                   Forces (Hartrees/Bohr)
 Number     Number              X              Y              Z
 -------------------------------------------------------------------
      1        1           0.019901480    0.013592044    0.000572067
      2        7           0.132514740   -0.097305161    0.000167735
      3        6           0.078657247    0.190245585   -0.002534944
      4        8          -0.231073467   -0.106532467    0.001795142
 -------------------------------------------------------------------
 Cartesian Forces:  Max     0.231073467 RMS     0.105965295
 ***** Axes restored to original set *****
 Rotating derivatives, DoTrsp=F IDiff=-2 LEDeriv=    628 LFDPrp=       0 LDFDPr=       0.
 -------------------------------------------------------------------
 Center     Atomic                   Forces (Hartrees/Bohr)
 Number     Number              X              Y              Z
 -------------------------------------------------------------------
      1        1           0.005450794    0.000049080    0.023482467
      2        7           0.163407895    0.000520382    0.018057351
      3        6          -0.070825303   -0.007387638    0.193173420
      4        8          -0.098033385    0.006818176   -0.234713238
 -------------------------------------------------------------------
 Cartesian Forces:  Max     0.234713238 RMS     0.105965295
 From PutF, contents of force:
   1   -0.2348246721D-01
   2   -0.1734953742D+00
   3   -0.2538990784D+00
   4   -0.1112455229D-01
   5    0.4447405935D-01
   6   -0.9541749784D-04
 -----------------------------------------------------------------------------------------------
                       Internal Coordinate Forces (Hartree/Bohr or radian)
  Cent   Atom   N1       Length/X         N2         Alpha/Y        N3         Beta/Z          J
 -----------------------------------------------------------------------------------------------
      1  H 
      2  N        1  -0.023482(     1)
      3  C        2  -0.173495(     2)      1  -0.011125(     4)
      4  O        3  -0.253899(     3)      2   0.044474(     5)      1  -0.000095(     6)     0
 -----------------------------------------------------------------------------------------------
 Internal  Forces:  Max     0.253899078 RMS     0.127291346
 Force constants in Cartesian coordinates: 
                1             2             3             4             5 
      1  0.625824D-01
      2  0.183545D-03  0.113856D-01
      3  0.102149D-01 -0.163377D-03  0.455278D+00
      4 -0.502763D-01 -0.122218D-02 -0.301178D-01 -0.205248D-01
      5 -0.331571D-03 -0.904146D-02  0.824344D-04  0.112786D-03  0.729900D-01
      6  0.385800D-01  0.166922D-04 -0.451329D+00 -0.271204D-01 -0.811036D-03
      7 -0.310061D-02  0.118815D-02  0.195745D-01  0.152301D+00 -0.686148D-03
      8 -0.720684D-04 -0.309895D-02  0.284909D-03 -0.137301D-02 -0.717752D-01
      9 -0.446587D-01  0.341698D-03 -0.589315D-02  0.198008D+00 -0.154323D-03
     10 -0.920550D-02 -0.149507D-03  0.328305D-03 -0.814997D-01  0.904933D-03
     11  0.220094D-03  0.754797D-03 -0.203966D-03  0.248241D-02  0.782673D-02
     12 -0.413622D-02 -0.195013D-03  0.194447D-02 -0.140770D+00  0.882925D-03
                6             7             8             9            10 
      6  0.572182D+00
      7  0.527855D-01 -0.112588D+00
      8 -0.998125D-03  0.255823D-02  0.186300D+00
      9 -0.548421D-01 -0.224831D+00  0.340307D-02  0.309666D-01
     10 -0.642451D-01 -0.366123D-01 -0.111315D-02  0.714811D-01  0.127317D+00
     11  0.179247D-02 -0.306023D-02 -0.111426D+00 -0.359044D-02  0.357725D-03
     12 -0.660107D-01  0.152471D+00 -0.268985D-02  0.297686D-01 -0.756431D-02
               11            12 
     11  0.102845D+00
     12  0.200194D-02  0.342976D-01
 FCInt: Cartesian first derivatives: 
                 1             2             3             4 
      1   0.545079D-02  0.163408D+00 -0.708253D-01 -0.980334D-01
      2   0.490799D-04  0.520382D-03 -0.738764D-02  0.681818D-02
      3   0.234825D-01  0.180574D-01  0.193173D+00 -0.234713D+00
 FCInt: Cartesian force constants: 
                1             2             3             4             5 
      1  0.625824D-01
      2  0.183545D-03  0.113856D-01
      3  0.102149D-01 -0.163377D-03  0.455278D+00
      4 -0.502763D-01 -0.122218D-02 -0.301178D-01 -0.205248D-01
      5 -0.331571D-03 -0.904146D-02  0.824344D-04  0.112786D-03  0.729900D-01
      6  0.385800D-01  0.166922D-04 -0.451329D+00 -0.271204D-01 -0.811036D-03
      7 -0.310061D-02  0.118815D-02  0.195745D-01  0.152301D+00 -0.686148D-03
      8 -0.720684D-04 -0.309895D-02  0.284909D-03 -0.137301D-02 -0.717752D-01
      9 -0.446587D-01  0.341698D-03 -0.589315D-02  0.198008D+00 -0.154323D-03
     10 -0.920550D-02 -0.149507D-03  0.328305D-03 -0.814997D-01  0.904933D-03
     11  0.220094D-03  0.754797D-03 -0.203966D-03  0.248241D-02  0.782673D-02
     12 -0.413622D-02 -0.195013D-03  0.194447D-02 -0.140770D+00  0.882925D-03
                6             7             8             9            10 
      6  0.572182D+00
      7  0.527855D-01 -0.112588D+00
      8 -0.998125D-03  0.255823D-02  0.186300D+00
      9 -0.548421D-01 -0.224831D+00  0.340307D-02  0.309666D-01
     10 -0.642451D-01 -0.366123D-01 -0.111315D-02  0.714811D-01  0.127317D+00
     11  0.179247D-02 -0.306023D-02 -0.111426D+00 -0.359044D-02  0.357725D-03
     12 -0.660107D-01  0.152471D+00 -0.268985D-02  0.297686D-01 -0.756431D-02
               11            12 
     11  0.102845D+00
     12  0.200194D-02  0.342976D-01
 Internal force constants: 
                1             2             3             4             5 
      1  0.455278D+00
      2 -0.177607D-01 -0.464485D-01
      3 -0.189161D-02  0.188199D+00  0.466646D-01
      4  0.262985D-01  0.541986D-01  0.159341D-01  0.212748D+00
      5  0.152394D-02  0.651069D-01  0.693008D-01  0.345356D-01  0.132448D+00
      6 -0.270902D-03 -0.201059D-02  0.505578D-03  0.697890D-03  0.147935D-03
                6 
      6  0.276675D-02
 Frcnst in PutFF: 
                1             2             3             4             5 
      1  0.455278D+00
      2 -0.177607D-01 -0.464485D-01
      3 -0.189161D-02  0.188199D+00  0.466646D-01
      4  0.262985D-01  0.541986D-01  0.159341D-01  0.212748D+00
      5  0.152394D-02  0.651069D-01  0.693008D-01  0.345356D-01  0.132448D+00
      6 -0.270902D-03 -0.201059D-02  0.505578D-03  0.697890D-03  0.147935D-03
                6 
      6  0.276675D-02
 Force constants in internal coordinates: 
                1             2             3             4             5 
      1  0.455278D+00
      2 -0.177607D-01 -0.464485D-01
      3 -0.189161D-02  0.188199D+00  0.466646D-01
      4  0.262985D-01  0.541986D-01  0.159341D-01  0.212748D+00
      5  0.152394D-02  0.651069D-01  0.693008D-01  0.345356D-01  0.132448D+00
      6 -0.270902D-03 -0.201059D-02  0.505578D-03  0.697890D-03  0.147935D-03
                6 
      6  0.276675D-02
 Final forces over variables, Energy=-1.65360616D+02:
 -2.34824672D-02-1.73495374D-01-2.53899078D-01-1.11245523D-02
  4.44740594D-02-9.54174978D-05
 Leave Link  716 at Fri Apr 15 18:53:52 2022, MaxMem=   131072000 cpu:               0.0 elap:               0.0
 (Enter C:\G16W\l103.exe)

 GradGradGradGradGradGradGradGradGradGradGradGradGradGradGradGradGradGrad
 Berny optimization.
 Search for a local minimum.
 Step number   1 out of a maximum of    2
 All quantities printed in internal units (Hartrees-Bohrs-Radians)
 Second derivative matrix not updated -- analytic derivatives used.
 The second derivative matrix:
                          B1        B2        B3        A1        A2
           B1           0.45528
           B2          -0.01776  -0.04645
           B3          -0.00189   0.18820   0.04666
           A1           0.02630   0.05420   0.01593   0.21275
           A2           0.00152   0.06511   0.06930   0.03454   0.13245
           D1          -0.00027  -0.00201   0.00051   0.00070   0.00015
                          D1
           D1           0.00277
 ITU=  0
     Eigenvalues ---   -0.19695   0.00278   0.06365   0.17431   0.30121
     Eigenvalues ---    0.45847
 Eigenvalue     1 is  -1.97D-01 should be greater than     0.000000 Eigenvector:
                          B2        B3        A1        B1        A2
   1                    0.79394  -0.60162  -0.08129   0.02321  -0.02194
                          D1
   1                    0.00985
 Quadratic step=3.687D+00 exceeds max=3.000D-01 adjusted using Lamda=-8.873D-01.
 Angle between NR and scaled steps=  29.99 degrees.
 Angle between quadratic step and forces=   5.79 degrees.
 Linear search not attempted -- first point.
 Variable       Old X    -DE/DX   Delta X   Delta X   Delta X     New X
                                 (Linear)    (Quad)   (Total)
    B1        2.04090  -0.02348   0.00000  -0.02016  -0.02016   2.02074
    B2        2.83459  -0.17350   0.00000  -0.16325  -0.16325   2.67134
    B3        2.64562  -0.25390   0.00000  -0.24086  -0.24086   2.40476
    A1        1.87966  -0.01112   0.00000   0.00007   0.00007   1.87973
    A2        2.34111   0.04447   0.00000   0.07054   0.07054   2.41166
    D1        3.17650  -0.00010   0.00000  -0.00041  -0.00041   3.17608
         Item               Value     Threshold  Converged?
 Maximum Force            0.253899     0.000450     NO 
 RMS     Force            0.127291     0.000300     NO 
 Maximum Displacement     0.240859     0.001800     NO 
 RMS     Displacement     0.122506     0.001200     NO 
 Predicted change in Energy=-8.652815D-02
                       ----------------------------
                       ! Non-Optimized Parameters !
                       ! (Angstroms and Degrees)  !
 ----------------------                            ----------------------
 !      Name          Value   Derivative information (Atomic Units)     !
 ------------------------------------------------------------------------
 !       B1          1.0693   -DE/DX =   -0.0235                        !
 !       B2          1.4136   -DE/DX =   -0.1735                        !
 !       B3          1.2725   -DE/DX =   -0.2539                        !
 !       A1        107.7006   -DE/DX =   -0.0111                        !
 !       A2        138.1777   -DE/DX =    0.0445                        !
 !       D1        181.9762   -DE/DX =   -0.0001                        !
 ------------------------------------------------------------------------
 GradGradGradGradGradGradGradGradGradGradGradGradGradGradGradGradGradGrad

 Leave Link  103 at Fri Apr 15 18:53:52 2022, MaxMem=   131072000 cpu:               0.0 elap:               0.0
 (Enter C:\G16W\l9999.exe)

 ----------------------------------------------------------------------

 Electric dipole moment (input orientation):
 (Debye = 10**-18 statcoulomb cm , SI units = C m)
                  (au)            (Debye)         (10**-30 SI)
   Tot        0.791779D+00      0.201250D+01      0.671298D+01
   x          0.299675D+00      0.761697D+00      0.254075D+01
   y          0.692297D-02      0.175964D-01      0.586954D-01
   z         -0.732844D+00     -0.186270D+01     -0.621331D+01

 Dipole polarizability, Alpha (input orientation).
 (esu units = cm**3 , SI units = C**2 m**2 J**-1)
 Alpha(0;0):
               (au)            (10**-24 esu)      (10**-40 SI)
   iso        0.143103D+02      0.212056D+01      0.235944D+01
   aniso      0.241472D+02      0.357824D+01      0.398133D+01
   xx         0.187612D+02      0.278012D+01      0.309330D+01
   yx         0.104680D-01      0.155120D-02      0.172594D-02
   yy         0.423807D+01      0.628017D+00      0.698763D+00
   zx         0.108585D+02      0.160906D+01      0.179032D+01
   zy        -0.161097D+00     -0.238721D-01     -0.265613D-01
   zz         0.199315D+02      0.295355D+01      0.328626D+01

 First dipole hyperpolarizability, Beta (input orientation).
 ||, _|_  parallel and perpendicular components, (z) with respect to z axis,
 vector components x,y,z.  Values do not include the 1/n! factor of 1/2.
 (esu units = statvolt**-1 cm**4 , SI units = C**3 m**3 J**-2)
 Beta(0;0,0):
               (au)            (10**-30 esu)      (10**-50 SI)
   || (z)    -0.146352D+02     -0.126437D+00     -0.469258D-01
   _|_(z)    -0.487840D+01     -0.421456D-01     -0.156419D-01
   x          0.181561D+03      0.156855D+01      0.582151D+00
   y          0.118322D+02      0.102221D+00      0.379383D-01
   z         -0.731760D+02     -0.632184D+00     -0.234629D+00
   ||         0.392220D+02      0.338848D+00      0.125760D+00
   xxx        0.496300D+02      0.428765D+00      0.159132D+00
   xxy        0.356395D+01      0.307897D-01      0.114273D-01
   yxy        0.277422D+02      0.239671D+00      0.889514D-01
   yyy       -0.110513D+01     -0.954745D-02     -0.354344D-02
   xxz        0.115692D+02      0.999491D-01      0.370951D-01
   yxz        0.214374D+01      0.185203D-01      0.687362D-02
   yyz        0.148460D+02      0.128258D+00      0.476017D-01
   zxz       -0.168518D+02     -0.145586D+00     -0.540330D-01
   zyz        0.148525D+01      0.128314D-01      0.476223D-02
   zzz       -0.508072D+02     -0.438935D+00     -0.162906D+00

 ----------------------------------------------------------------------

 Dipole orientation:
     1          0.00000000          0.00000000          0.00000000
     7          0.77244724         -0.01784479         -1.88899360
     6          3.59812521         -0.02073759         -1.66442397
     8          5.58506886          0.02684664         -3.41058483

 Electric dipole moment (dipole orientation):
 (Debye = 10**-18 statcoulomb cm , SI units = C m)
                  (au)            (Debye)         (10**-30 SI)
   Tot        0.791779D+00      0.201250D+01      0.671298D+01
   x          0.000000D+00      0.000000D+00      0.000000D+00
   y          0.000000D+00      0.000000D+00      0.000000D+00
   z          0.791779D+00      0.201250D+01      0.671298D+01

 Dipole polarizability, Alpha (dipole orientation).
 (esu units = cm**3 , SI units = C**2 m**2 J**-1)
 Alpha(0;0):
               (au)            (10**-24 esu)      (10**-40 SI)
   iso        0.143103D+02      0.212056D+01      0.235944D+01
   aniso      0.241472D+02      0.357824D+01      0.398133D+01
   xx         0.265370D+02      0.393238D+01      0.437536D+01
   yx        -0.583686D-01     -0.864933D-02     -0.962367D-02
   yy         0.423613D+01      0.627730D+00      0.698444D+00
   zx        -0.815758D+01     -0.120883D+01     -0.134500D+01
   zy        -0.698057D-01     -0.103441D-01     -0.115094D-01
   zz         0.121576D+02      0.180158D+01      0.200453D+01

 First dipole hyperpolarizability, Beta (dipole orientation).
 ||, _|_  parallel and perpendicular components, (z) with respect to z axis,
 vector components x,y,z.  Values do not include the 1/n! factor of 1/2.
 (esu units = statvolt**-1 cm**4 , SI units = C**3 m**3 J**-2)
 Beta(0;0,0):
               (au)            (10**-30 esu)      (10**-50 SI)
   || (z)     0.273101D+02      0.235938D+00      0.875661D-01
   _|_(z)     0.910337D+01      0.786460D-01      0.291887D-01
   x          0.140338D+03      0.121241D+01      0.449974D+00
   y         -0.108799D+02     -0.939936D-01     -0.348848D-01
   z          0.136551D+03      0.117969D+01      0.437830D+00
   ||         0.392220D+02      0.338848D+00      0.125760D+00
   xxx        0.411294D+02      0.355326D+00      0.131876D+00
   xxy       -0.449730D+01     -0.388532D-01     -0.144200D-01
   yxy        0.313242D+02      0.270617D+00      0.100437D+00
   yyy        0.858477D+00      0.741657D-02      0.275259D-02
   xxz        0.267817D+02      0.231373D+00      0.858718D-01
   yxz        0.251494D+00      0.217272D-02      0.806382D-03
   yyz       -0.325414D+01     -0.281133D-01     -0.104340D-01
   zxz       -0.256743D+02     -0.221806D+00     -0.823210D-01
   zyz        0.122018D-01      0.105414D-03      0.391234D-04
   zzz        0.219893D+02      0.189970D+00      0.705056D-01

 ----------------------------------------------------------------------

 Test job not archived.
 1|1|UNPC-DESKTOP-RNC6JTU|Freq|RHF|STO-3G|C1H1N1O1|BNULK|15-Apr-2022|1|
 |#p sto-3g scf=maxcycle=999 freq=noraman IOP(7/33=1) hf||T1||0,1|H|N,1
 ,B1|C,2,B2,1,A1|O,3,B3,2,A2,1,D1,0||B1=1.08|B2=1.5|B3=1.4|A1=107.69645
 4|A2=134.13593|D1=182.||Version=EM64W-G16RevA.03|State=1-A|HF=-165.360
 6156|RMSD=9.828e-009|RMSF=1.060e-001|ZeroPoint=0.0156738|Thermal=0.018
 9366|Dipole=0.2996747,0.006923,-0.7328442|DipoleDeriv=0.3089115,-0.002
 6044,0.2186494,0.0103901,0.3037589,0.0058528,0.0865585,0.0009422,-0.04
 38582,-0.5892613,0.0182543,-0.5921598,-0.0071702,-0.4603003,-0.0055485
 ,-0.0794754,-0.0012157,0.0028752,0.6025499,-0.0204086,0.5299658,-0.022
 8435,0.261245,-0.0098006,0.3322394,-0.0017292,0.3005593,-0.3222,0.0047
 587,-0.1564555,0.0196236,-0.1047036,0.0094962,-0.3393225,0.0020027,-0.
 2595763|Polar=18.7611909,0.010468,4.2380685,10.8584775,-0.1610969,19.9
 315112|HyperPolar=49.6299971,3.5639489,27.7421742,-1.105129,11.5692245
 ,2.1437449,14.8460103,-16.8518007,1.4852451,-50.80724|Quadrupole=-1.50
 83696,0.1234219,1.3849477,0.0479081,-0.4917838,0.0208822|PG=C01 [X(C1H
 1N1O1)]|NImag=1||0.06258241,0.00018355,0.01138561,0.01021494,-0.000163
 38,0.45527780,-0.05027630,-0.00122218,-0.03011777,-0.02052478,-0.00033
 157,-0.00904146,0.00008243,0.00011279,0.07298997,0.03858000,0.00001669
 ,-0.45132912,-0.02712036,-0.00081104,0.57218194,-0.00310061,0.00118815
 ,0.01957452,0.15230075,-0.00068615,0.05278549,-0.11258788,-0.00007207,
 -0.00309895,0.00028491,-0.00137301,-0.07177524,-0.00099812,0.00255823,
 0.18630037,-0.04465872,0.00034170,-0.00589315,0.19800837,-0.00015432,-
 0.05484210,-0.22483079,0.00340307,0.03096662,-0.00920550,-0.00014951,0
 .00032831,-0.08149967,0.00090493,-0.06424513,-0.03661227,-0.00111315,0
 .07148114,0.12731744,0.00022009,0.00075480,-0.00020397,0.00248241,0.00
 782673,0.00179247,-0.00306023,-0.11142618,-0.00359044,0.00035773,0.102
 84465,-0.00413622,-0.00019501,0.00194447,-0.14077024,0.00088292,-0.066
 01073,0.15247078,-0.00268985,0.02976862,-0.00756431,0.00200194,0.03429
 763||-0.00545079,-0.00004908,-0.02348247,-0.16340789,-0.00052038,-0.01
 805735,0.07082530,0.00738764,-0.19317342,0.09803339,-0.00681818,0.2347
 1324|||@


 SOME PHYSICISTS WOULD PREFER TO COME BACK TO THE IDEA OF AN OBJECTIVE
 REAL WORLD WHOSE SMALLEST PARTS EXIST OBJECTIVELY IN THE SAME SENSE AS
 STONES OR TREES EXIST INDEPENDENTLY OF WHETHER WE OBSERVE THEM.
 THIS, HOWEVER, IS IMPOSSIBLE.  -- WERNER HEISENBERG
 Job cpu time:       0 days  0 hours  0 minutes  2.0 seconds.
 Elapsed time:       0 days  0 hours  0 minutes  1.2 seconds.
 File lengths (MBytes):  RWF=      6 Int=      0 D2E=      0 Chk=      1 Scr=      1
 Normal termination of Gaussian 16 at Fri Apr 15 18:53:52 2022.
