 Entering Gaussian System, Link 0=g16
 Input=State2_2.gjf
 Output=State2_2.out
 Initial command:
 C:\G16W\l1.exe ".\Gau-19700.inp" "State2_2.out" /scrdir=".\"
 Entering Link 1 = C:\G16W\l1.exe PID=      8588.
  
 Copyright (c) 1988,1990,1992,1993,1995,1998,2003,2009,2016,
            Gaussian, Inc.  All Rights Reserved.
  
 This is part of the Gaussian(R) 16 program.  It is based on
 the Gaussian(R) 09 system (copyright 2009, Gaussian, Inc.),
 the Gaussian(R) 03 system (copyright 2003, Gaussian, Inc.),
 the Gaussian(R) 98 system (copyright 1998, Gaussian, Inc.),
 the Gaussian(R) 94 system (copyright 1995, Gaussian, Inc.),
 the Gaussian 92(TM) system (copyright 1992, Gaussian, Inc.),
 the Gaussian 90(TM) system (copyright 1990, Gaussian, Inc.),
 the Gaussian 88(TM) system (copyright 1988, Gaussian, Inc.),
 the Gaussian 86(TM) system (copyright 1986, Carnegie Mellon
 University), and the Gaussian 82(TM) system (copyright 1983,
 Carnegie Mellon University). Gaussian is a federally registered
 trademark of Gaussian, Inc.
  
 This software contains proprietary and confidential information,
 including trade secrets, belonging to Gaussian, Inc.
  
 This software is provided under written license and may be
 used, copied, transmitted, or stored only in accord with that
 written license.
  
 The following legend is applicable only to US Government
 contracts under FAR:
  
                    RESTRICTED RIGHTS LEGEND
  
 Use, reproduction and disclosure by the US Government is
 subject to restrictions as set forth in subparagraphs (a)
 and (c) of the Commercial Computer Software - Restricted
 Rights clause in FAR 52.227-19.
  
 Gaussian, Inc.
 340 Quinnipiac St., Bldg. 40, Wallingford CT 06492
  
  
 ---------------------------------------------------------------
 Warning -- This program may not be used in any manner that
 competes with the business of Gaussian, Inc. or will provide
 assistance to any competitor of Gaussian, Inc.  The licensee
 of this program is prohibited from giving any competitor of
 Gaussian, Inc. access to this program.  By using this program,
 the user acknowledges that Gaussian, Inc. is engaged in the
 business of creating and licensing software in the field of
 computational chemistry and represents and warrants to the
 licensee that it is not a competitor of Gaussian, Inc. and that
 it will not use this program in any manner prohibited above.
 ---------------------------------------------------------------
  

 Cite this work as:
 Gaussian 16, Revision A.03,
 M. J. Frisch, G. W. Trucks, H. B. Schlegel, G. E. Scuseria, 
 M. A. Robb, J. R. Cheeseman, G. Scalmani, V. Barone, 
 G. A. Petersson, H. Nakatsuji, X. Li, M. Caricato, A. V. Marenich, 
 J. Bloino, B. G. Janesko, R. Gomperts, B. Mennucci, H. P. Hratchian, 
 J. V. Ortiz, A. F. Izmaylov, J. L. Sonnenberg, D. Williams-Young, 
 F. Ding, F. Lipparini, F. Egidi, J. Goings, B. Peng, A. Petrone, 
 T. Henderson, D. Ranasinghe, V. G. Zakrzewski, J. Gao, N. Rega, 
 G. Zheng, W. Liang, M. Hada, M. Ehara, K. Toyota, R. Fukuda, 
 J. Hasegawa, M. Ishida, T. Nakajima, Y. Honda, O. Kitao, H. Nakai, 
 T. Vreven, K. Throssell, J. A. Montgomery, Jr., J. E. Peralta, 
 F. Ogliaro, M. J. Bearpark, J. J. Heyd, E. N. Brothers, K. N. Kudin, 
 V. N. Staroverov, T. A. Keith, R. Kobayashi, J. Normand, 
 K. Raghavachari, A. P. Rendell, J. C. Burant, S. S. Iyengar, 
 J. Tomasi, M. Cossi, J. M. Millam, M. Klene, C. Adamo, R. Cammi, 
 J. W. Ochterski, R. L. Martin, K. Morokuma, O. Farkas, 
 J. B. Foresman, and D. J. Fox, Gaussian, Inc., Wallingford CT, 2016.
 
 ******************************************
 Gaussian 16:  EM64W-G16RevA.03 17-Dec-2016
                15-Apr-2022 
 ******************************************
 %mem=1000mb
 %chk=LiuKun2.chk
 ------------------------------------------------------
 #p sto-3g scf=maxcycle=999 freq=noraman IOP(7/33=1) hf
 ------------------------------------------------------
 1/10=4,30=1,38=1/1,3;
 2/12=2,17=6,18=5,40=1/2;
 3/6=3,11=9,25=1,30=1,71=2,140=1/1,2,3;
 4//1;
 5/5=2,7=999,38=5,98=1/2;
 8/6=4,10=90,11=11/1;
 11/6=1,8=1,9=11,15=111,16=1/1,2,10;
 10/6=1/2;
 6/7=2,8=2,9=2,10=2,28=1/1;
 7/8=1,10=1,25=1,33=1/1,2,3,16;
 1/10=4,30=1/3;
 99//99;
 Leave Link    1 at Fri Apr 15 18:54:00 2022, MaxMem=   131072000 cpu:               0.0 elap:               0.0
 (Enter C:\G16W\l101.exe)
 --
 T1
 --
 Symbolic Z-matrix:
 Charge =  0 Multiplicity = 3
 H
 N                    1    B1
 C                    2    B2       1    A1
 O                    3    B3       2    A2       1    D1       0
       Variables:
  B1                    1.05048                  
  B2                    1.40922                  
  B3                    1.14823                  
  A1                  106.07776                  
  A2                  134.00473                  
  D1                  192.67597                  
 
 ITRead=  0  0  0  0
 MicOpt= -1 -1 -1 -1
 NAtoms=      4 NQM=        4 NQMF=       0 NMMI=      0 NMMIF=      0
                NMic=       0 NMicF=      0.
                    Isotopes and Nuclear Properties:
 (Nuclear quadrupole moments (NQMom) in fm**2, nuclear magnetic moments (NMagM)
  in nuclear magnetons)

  Atom         1           2           3           4
 IAtWgt=           1          14          12          16
 AtmWgt=   1.0078250  14.0030740  12.0000000  15.9949146
 NucSpn=           1           2           0           0
 AtZEff=   0.0000000   0.0000000   0.0000000   0.0000000
 NQMom=    0.0000000   2.0440000   0.0000000   0.0000000
 NMagM=    2.7928460   0.4037610   0.0000000   0.0000000
 AtZNuc=   1.0000000   7.0000000   6.0000000   8.0000000
 Leave Link  101 at Fri Apr 15 18:54:00 2022, MaxMem=   131072000 cpu:               0.0 elap:               0.1
 (Enter C:\G16W\l103.exe)

 GradGradGradGradGradGradGradGradGradGradGradGradGradGradGradGradGradGrad
 Berny optimization.
 Initialization pass.
                       ----------------------------
                       !    Initial Parameters    !
                       ! (Angstroms and Degrees)  !
 ----------------------                            ----------------------
 !      Name          Value   Derivative information (Atomic Units)     !
 ------------------------------------------------------------------------
 !       B1          1.0505   calculate D2E/DX2 analytically            !
 !       B2          1.4092   calculate D2E/DX2 analytically            !
 !       B3          1.1482   calculate D2E/DX2 analytically            !
 !       A1        106.0778   calculate D2E/DX2 analytically            !
 !       A2        134.0047   calculate D2E/DX2 analytically            !
 !       D1        192.676    calculate D2E/DX2 analytically            !
 ------------------------------------------------------------------------
 Trust Radius=3.00D-01 FncErr=1.00D-07 GrdErr=1.00D-07 EigMax=2.50D+02 EigMin=1.00D-04
 Number of steps in this run=      2 maximum allowed number of steps=      2.
 GradGradGradGradGradGradGradGradGradGradGradGradGradGradGradGradGradGrad

 Leave Link  103 at Fri Apr 15 18:54:00 2022, MaxMem=   131072000 cpu:               0.0 elap:               0.0
 (Enter C:\G16W\l202.exe)
                          Input orientation:                          
 ---------------------------------------------------------------------
 Center     Atomic      Atomic             Coordinates (Angstroms)
 Number     Number       Type             X           Y           Z
 ---------------------------------------------------------------------
      1          1           0        0.000000    0.000000    0.000000
      2          7           0        0.000000    0.000000    1.050484
      3          6           0        1.354097    0.000000    1.440755
      4          8           0        1.897442   -0.181234    2.435929
 ---------------------------------------------------------------------
                    Distance matrix (angstroms):
                    1          2          3          4
     1  H    0.000000
     2  N    1.050484   0.000000
     3  C    1.977208   1.409216   0.000000
     4  O    3.093038   2.356393   1.148234   0.000000
 Stoichiometry    CHNO(3)
 Framework group  C1[X(CHNO)]
 Deg. of freedom     6
 Full point group                 C1      NOp   1
 Largest Abelian subgroup         C1      NOp   1
 Largest concise Abelian subgroup C1      NOp   1
                         Standard orientation:                         
 ---------------------------------------------------------------------
 Center     Atomic      Atomic             Coordinates (Angstroms)
 Number     Number       Type             X           Y           Z
 ---------------------------------------------------------------------
      1          1           0        1.838793    0.574380    0.130446
      2          7           0        1.178754   -0.230762   -0.009598
      3          6           0       -0.115578    0.325874   -0.036979
      4          8           0       -1.174575   -0.114286    0.019827
 ---------------------------------------------------------------------
 Rotational constants (GHZ):         196.9377316          11.2106586          10.6232474
 Leave Link  202 at Fri Apr 15 18:54:00 2022, MaxMem=   131072000 cpu:               0.0 elap:               0.0
 (Enter C:\G16W\l301.exe)
 Standard basis: STO-3G (5D, 7F)
 Ernie: Thresh=  0.10000D-02 Tol=  0.10000D-05 Strict=F.
 There are    16 symmetry adapted cartesian basis functions of A   symmetry.
 There are    16 symmetry adapted basis functions of A   symmetry.
    16 basis functions,    48 primitive gaussians,    16 cartesian basis functions
    12 alpha electrons       10 beta electrons
       nuclear repulsion energy        56.9695746602 Hartrees.
 IExCor=    0 DFT=F Ex=HF Corr=None ExCW=0 ScaHFX=  1.000000
 ScaDFX=  1.000000  1.000000  1.000000  1.000000 ScalE2=  1.000000  1.000000
 IRadAn=      5 IRanWt=     -1 IRanGd=            0 ICorTp=0 IEmpDi=  4
 NAtoms=    4 NActive=    4 NUniq=    4 SFac= 1.00D+00 NAtFMM=   60 NAOKFM=F Big=F
 Integral buffers will be    131072 words long.
 Raffenetti 2 integral format.
 Two-electron integral symmetry is turned on.
 Leave Link  301 at Fri Apr 15 18:54:00 2022, MaxMem=   131072000 cpu:               0.0 elap:               0.0
 (Enter C:\G16W\l302.exe)
 NPDir=0 NMtPBC=     1 NCelOv=     1 NCel=       1 NClECP=     1 NCelD=      1
         NCelK=      1 NCelE2=     1 NClLst=     1 CellRange=     0.0.
 One-electron integrals computed using PRISM.
 One-electron integral symmetry used in STVInt
 NBasis=    16 RedAO= T EigKep=  2.12D-01  NBF=    16
 NBsUse=    16 1.00D-06 EigRej= -1.00D+00 NBFU=    16
 Leave Link  302 at Fri Apr 15 18:54:00 2022, MaxMem=   131072000 cpu:               0.0 elap:               0.1
 (Enter C:\G16W\l303.exe)
 DipDrv:  MaxL=1.
 Leave Link  303 at Fri Apr 15 18:54:01 2022, MaxMem=   131072000 cpu:               0.0 elap:               0.0
 (Enter C:\G16W\l401.exe)
 ExpMin= 1.69D-01 ExpMax= 1.31D+02 ExpMxC= 1.31D+02 IAcc=3 IRadAn=         5 AccDes= 0.00D+00
 Harris functional with IExCor=  205 and IRadAn=       5 diagonalized for initial guess.
 HarFok:  IExCor=  205 AccDes= 0.00D+00 IRadAn=         5 IDoV= 1 UseB2=F ITyADJ=14
 ICtDFT=  3500011 ScaDFX=  1.000000  1.000000  1.000000  1.000000
 FoFCou: FMM=F IPFlag=           0 FMFlag=      100000 FMFlg1=           0
         NFxFlg=           0 DoJE=T BraDBF=F KetDBF=T FulRan=T
         wScrn=  0.000000 ICntrl=       500 IOpCl=  0 I1Cent=   200000004 NGrid=           0
         NMat0=    1 NMatS0=      1 NMatT0=    0 NMatD0=    1 NMtDS0=    0 NMtDT0=    0
 Petite list used in FoFCou.
 Harris En= -165.353872552254    
 JPrj=0 DoOrth=F DoCkMO=F.
 Initial guess <Sx>= 0.0000 <Sy>= 0.0000 <Sz>= 1.0000 <S**2>= 2.0000 S= 1.0000
 Leave Link  401 at Fri Apr 15 18:54:01 2022, MaxMem=   131072000 cpu:               0.0 elap:               0.1
 (Enter C:\G16W\l502.exe)
 Keep R1 and R2 ints in memory in canonical form, NReq=823457.
 FoFCou: FMM=F IPFlag=           0 FMFlag=           0 FMFlg1=           0
         NFxFlg=           0 DoJE=F BraDBF=F KetDBF=F FulRan=T
         wScrn=  0.000000 ICntrl=       600 IOpCl=  0 I1Cent=           0 NGrid=           0
         NMat0=    1 NMatS0=    136 NMatT0=    0 NMatD0=    1 NMtDS0=    0 NMtDT0=    0
 Symmetry not used in FoFCou.
 Two-electron integral symmetry not used.
 UHF open shell SCF:
 Using DIIS extrapolation, IDIIS=  1040.
 NGot=   131072000 LenX=   131051941 LenY=   131051059
 Requested convergence on RMS density matrix=1.00D-08 within 999 cycles.
 Requested convergence on MAX density matrix=1.00D-06.
 Requested convergence on             energy=1.00D-06.
 No special actions if energy rises.

 Cycle   1  Pass 1  IDiag  1:
 E= -165.402831665176    
 DIIS: error= 3.43D-02 at cycle   1 NSaved=   1.
 NSaved= 1 IEnMin= 1 EnMin= -165.402831665176     IErMin= 1 ErrMin= 3.43D-02
 ErrMax= 3.43D-02  0.00D+00 EMaxC= 1.00D-01 BMatC= 1.00D-01 BMatP= 1.00D-01
 IDIUse=3 WtCom= 6.57D-01 WtEn= 3.43D-01
 Coeff-Com:  0.100D+01
 Coeff-En:   0.100D+01
 Coeff:      0.100D+01
 Gap=     0.542 Goal=   None    Shift=    0.000
 Gap=     0.548 Goal=   None    Shift=    0.000
 GapD=    0.542 DampG=2.000 DampE=0.500 DampFc=1.0000 IDamp=-1.
 RMSDP=1.26D-02 MaxDP=8.59D-02              OVMax= 0.00D+00

 Cycle   2  Pass 1  IDiag  1:
 E= -165.435468243793     Delta-E=       -0.032636578617 Rises=F Damp=F
 DIIS: error= 1.45D-02 at cycle   2 NSaved=   2.
 NSaved= 2 IEnMin= 2 EnMin= -165.435468243793     IErMin= 2 ErrMin= 1.45D-02
 ErrMax= 1.45D-02  0.00D+00 EMaxC= 1.00D-01 BMatC= 9.75D-03 BMatP= 1.00D-01
 IDIUse=3 WtCom= 8.55D-01 WtEn= 1.45D-01
 Coeff-Com: -0.964D-01 0.110D+01
 Coeff-En:   0.000D+00 0.100D+01
 Coeff:     -0.824D-01 0.108D+01
 Gap=     0.567 Goal=   None    Shift=    0.000
 Gap=     0.584 Goal=   None    Shift=    0.000
 RMSDP=5.53D-03 MaxDP=2.88D-02 DE=-3.26D-02 OVMax= 0.00D+00

 Cycle   3  Pass 1  IDiag  1:
 E= -165.442013700092     Delta-E=       -0.006545456298 Rises=F Damp=F
 DIIS: error= 9.35D-03 at cycle   3 NSaved=   3.
 NSaved= 3 IEnMin= 3 EnMin= -165.442013700092     IErMin= 3 ErrMin= 9.35D-03
 ErrMax= 9.35D-03  0.00D+00 EMaxC= 1.00D-01 BMatC= 2.29D-03 BMatP= 9.75D-03
 IDIUse=3 WtCom= 9.06D-01 WtEn= 9.35D-02
 Coeff-Com: -0.641D-01 0.113D-01 0.105D+01
 Coeff-En:   0.000D+00 0.000D+00 0.100D+01
 Coeff:     -0.581D-01 0.102D-01 0.105D+01
 Gap=     0.575 Goal=   None    Shift=    0.000
 Gap=     0.579 Goal=   None    Shift=    0.000
 RMSDP=2.91D-03 MaxDP=2.44D-02 DE=-6.55D-03 OVMax= 0.00D+00

 Cycle   4  Pass 1  IDiag  1:
 E= -165.443578684763     Delta-E=       -0.001564984671 Rises=F Damp=F
 DIIS: error= 5.12D-03 at cycle   4 NSaved=   4.
 NSaved= 4 IEnMin= 4 EnMin= -165.443578684763     IErMin= 4 ErrMin= 5.12D-03
 ErrMax= 5.12D-03  0.00D+00 EMaxC= 1.00D-01 BMatC= 6.62D-04 BMatP= 2.29D-03
 IDIUse=3 WtCom= 9.49D-01 WtEn= 5.12D-02
 Coeff-Com:  0.122D-01-0.251D+00 0.176D+00 0.106D+01
 Coeff-En:   0.000D+00 0.000D+00 0.000D+00 0.100D+01
 Coeff:      0.116D-01-0.238D+00 0.167D+00 0.106D+01
 Gap=     0.580 Goal=   None    Shift=    0.000
 Gap=     0.585 Goal=   None    Shift=    0.000
 RMSDP=1.71D-03 MaxDP=1.14D-02 DE=-1.56D-03 OVMax= 0.00D+00

 Cycle   5  Pass 1  IDiag  1:
 E= -165.444120345615     Delta-E=       -0.000541660852 Rises=F Damp=F
 DIIS: error= 2.59D-03 at cycle   5 NSaved=   5.
 NSaved= 5 IEnMin= 5 EnMin= -165.444120345615     IErMin= 5 ErrMin= 2.59D-03
 ErrMax= 2.59D-03  0.00D+00 EMaxC= 1.00D-01 BMatC= 1.64D-04 BMatP= 6.62D-04
 IDIUse=3 WtCom= 9.74D-01 WtEn= 2.59D-02
 Coeff-Com:  0.451D-02 0.139D-01-0.114D+00-0.179D+00 0.127D+01
 Coeff-En:   0.000D+00 0.000D+00 0.000D+00 0.000D+00 0.100D+01
 Coeff:      0.439D-02 0.135D-01-0.111D+00-0.174D+00 0.127D+01
 Gap=     0.580 Goal=   None    Shift=    0.000
 Gap=     0.586 Goal=   None    Shift=    0.000
 RMSDP=1.07D-03 MaxDP=1.26D-02 DE=-5.42D-04 OVMax= 0.00D+00

 Cycle   6  Pass 1  IDiag  1:
 E= -165.444362023528     Delta-E=       -0.000241677914 Rises=F Damp=F
 DIIS: error= 1.74D-03 at cycle   6 NSaved=   6.
 NSaved= 6 IEnMin= 6 EnMin= -165.444362023528     IErMin= 6 ErrMin= 1.74D-03
 ErrMax= 1.74D-03  0.00D+00 EMaxC= 1.00D-01 BMatC= 1.01D-04 BMatP= 1.64D-04
 IDIUse=3 WtCom= 9.83D-01 WtEn= 1.74D-02
 Coeff-Com: -0.101D-01 0.762D-01 0.796D-01-0.383D+00-0.112D+01 0.236D+01
 Coeff-En:   0.000D+00 0.000D+00 0.000D+00 0.000D+00 0.000D+00 0.100D+01
 Coeff:     -0.996D-02 0.749D-01 0.782D-01-0.376D+00-0.110D+01 0.233D+01
 Gap=     0.582 Goal=   None    Shift=    0.000
 Gap=     0.588 Goal=   None    Shift=    0.000
 RMSDP=1.81D-03 MaxDP=2.15D-02 DE=-2.42D-04 OVMax= 0.00D+00

 Cycle   7  Pass 1  IDiag  1:
 E= -165.444668484506     Delta-E=       -0.000306460978 Rises=F Damp=F
 DIIS: error= 1.31D-03 at cycle   7 NSaved=   7.
 NSaved= 7 IEnMin= 7 EnMin= -165.444668484506     IErMin= 7 ErrMin= 1.31D-03
 ErrMax= 1.31D-03  0.00D+00 EMaxC= 1.00D-01 BMatC= 4.53D-05 BMatP= 1.01D-04
 IDIUse=3 WtCom= 9.87D-01 WtEn= 1.31D-02
 Coeff-Com:  0.128D-01-0.147D+00-0.468D-01 0.608D+00 0.142D+01-0.405D+01
 Coeff-Com:  0.320D+01
 Coeff-En:   0.000D+00 0.000D+00 0.000D+00 0.000D+00 0.000D+00 0.000D+00
 Coeff-En:   0.100D+01
 Coeff:      0.126D-01-0.145D+00-0.462D-01 0.600D+00 0.140D+01-0.399D+01
 Coeff:      0.317D+01
 Gap=     0.584 Goal=   None    Shift=    0.000
 Gap=     0.591 Goal=   None    Shift=    0.000
 RMSDP=2.06D-03 MaxDP=2.52D-02 DE=-3.06D-04 OVMax= 0.00D+00

 Cycle   8  Pass 1  IDiag  1:
 E= -165.444866544505     Delta-E=       -0.000198059999 Rises=F Damp=F
 DIIS: error= 5.42D-04 at cycle   8 NSaved=   8.
 NSaved= 8 IEnMin= 8 EnMin= -165.444866544505     IErMin= 8 ErrMin= 5.42D-04
 ErrMax= 5.42D-04  0.00D+00 EMaxC= 1.00D-01 BMatC= 1.06D-05 BMatP= 4.53D-05
 IDIUse=3 WtCom= 9.95D-01 WtEn= 5.42D-03
 Coeff-Com: -0.116D-01 0.153D+00 0.541D-01-0.667D+00-0.133D+01 0.433D+01
 Coeff-Com: -0.424D+01 0.272D+01
 Coeff-En:   0.000D+00 0.000D+00 0.000D+00 0.000D+00 0.000D+00 0.000D+00
 Coeff-En:   0.000D+00 0.100D+01
 Coeff:     -0.115D-01 0.152D+00 0.539D-01-0.663D+00-0.132D+01 0.430D+01
 Coeff:     -0.422D+01 0.271D+01
 Gap=     0.584 Goal=   None    Shift=    0.000
 Gap=     0.592 Goal=   None    Shift=    0.000
 RMSDP=1.09D-03 MaxDP=1.22D-02 DE=-1.98D-04 OVMax= 0.00D+00

 Cycle   9  Pass 1  IDiag  1:
 E= -165.444903910584     Delta-E=       -0.000037366079 Rises=F Damp=F
 DIIS: error= 1.09D-04 at cycle   9 NSaved=   9.
 NSaved= 9 IEnMin= 9 EnMin= -165.444903910584     IErMin= 9 ErrMin= 1.09D-04
 ErrMax= 1.09D-04  0.00D+00 EMaxC= 1.00D-01 BMatC= 7.42D-07 BMatP= 1.06D-05
 IDIUse=3 WtCom= 9.99D-01 WtEn= 1.09D-03
 Coeff-Com:  0.483D-02-0.701D-01-0.263D-01 0.297D+00 0.551D+00-0.191D+01
 Coeff-Com:  0.207D+01-0.165D+01 0.173D+01
 Coeff-En:   0.000D+00 0.000D+00 0.000D+00 0.000D+00 0.000D+00 0.000D+00
 Coeff-En:   0.000D+00 0.000D+00 0.100D+01
 Coeff:      0.483D-02-0.701D-01-0.263D-01 0.296D+00 0.551D+00-0.191D+01
 Coeff:      0.207D+01-0.165D+01 0.173D+01
 Gap=     0.585 Goal=   None    Shift=    0.000
 Gap=     0.592 Goal=   None    Shift=    0.000
 RMSDP=1.73D-04 MaxDP=1.28D-03 DE=-3.74D-05 OVMax= 0.00D+00

 Cycle  10  Pass 1  IDiag  1:
 E= -165.444905318273     Delta-E=       -0.000001407689 Rises=F Damp=F
 DIIS: error= 6.67D-05 at cycle  10 NSaved=  10.
 NSaved=10 IEnMin=10 EnMin= -165.444905318273     IErMin=10 ErrMin= 6.67D-05
 ErrMax= 6.67D-05  0.00D+00 EMaxC= 1.00D-01 BMatC= 1.05D-07 BMatP= 7.42D-07
 IDIUse=1 WtCom= 1.00D+00 WtEn= 0.00D+00
 Coeff-Com: -0.733D-03 0.126D-01 0.810D-02-0.539D-01-0.749D-01 0.313D+00
 Coeff-Com: -0.411D+00 0.389D+00-0.621D+00 0.144D+01
 Coeff:     -0.733D-03 0.126D-01 0.810D-02-0.539D-01-0.749D-01 0.313D+00
 Coeff:     -0.411D+00 0.389D+00-0.621D+00 0.144D+01
 Gap=     0.585 Goal=   None    Shift=    0.000
 Gap=     0.592 Goal=   None    Shift=    0.000
 RMSDP=6.13D-05 MaxDP=4.14D-04 DE=-1.41D-06 OVMax= 0.00D+00

 Cycle  11  Pass 1  IDiag  1:
 E= -165.444905524100     Delta-E=       -0.000000205826 Rises=F Damp=F
 DIIS: error= 4.49D-05 at cycle  11 NSaved=  11.
 NSaved=11 IEnMin=11 EnMin= -165.444905524100     IErMin=11 ErrMin= 4.49D-05
 ErrMax= 4.49D-05  0.00D+00 EMaxC= 1.00D-01 BMatC= 3.36D-08 BMatP= 1.05D-07
 IDIUse=1 WtCom= 1.00D+00 WtEn= 0.00D+00
 Coeff-Com:  0.230D-03-0.536D-02-0.573D-02 0.222D-01 0.160D-01-0.109D+00
 Coeff-Com:  0.194D+00-0.203D+00 0.383D+00-0.152D+01 0.222D+01
 Coeff:      0.230D-03-0.536D-02-0.573D-02 0.222D-01 0.160D-01-0.109D+00
 Coeff:      0.194D+00-0.203D+00 0.383D+00-0.152D+01 0.222D+01
 Gap=     0.585 Goal=   None    Shift=    0.000
 Gap=     0.592 Goal=   None    Shift=    0.000
 RMSDP=4.46D-05 MaxDP=3.03D-04 DE=-2.06D-07 OVMax= 0.00D+00

 Cycle  12  Pass 1  IDiag  1:
 E= -165.444905625959     Delta-E=       -0.000000101859 Rises=F Damp=F
 DIIS: error= 2.29D-05 at cycle  12 NSaved=  12.
 NSaved=12 IEnMin=12 EnMin= -165.444905625959     IErMin=12 ErrMin= 2.29D-05
 ErrMax= 2.29D-05  0.00D+00 EMaxC= 1.00D-01 BMatC= 1.01D-08 BMatP= 3.36D-08
 IDIUse=1 WtCom= 1.00D+00 WtEn= 0.00D+00
 Coeff-Com: -0.997D-04 0.334D-02 0.334D-02-0.116D-01 0.976D-03 0.473D-01
 Coeff-Com: -0.123D+00 0.128D+00-0.243D+00 0.123D+01-0.265D+01 0.261D+01
 Coeff:     -0.997D-04 0.334D-02 0.334D-02-0.116D-01 0.976D-03 0.473D-01
 Coeff:     -0.123D+00 0.128D+00-0.243D+00 0.123D+01-0.265D+01 0.261D+01
 Gap=     0.585 Goal=   None    Shift=    0.000
 Gap=     0.592 Goal=   None    Shift=    0.000
 RMSDP=4.44D-05 MaxDP=2.86D-04 DE=-1.02D-07 OVMax= 0.00D+00

 Cycle  13  Pass 1  IDiag  1:
 E= -165.444905666145     Delta-E=       -0.000000040187 Rises=F Damp=F
 DIIS: error= 3.41D-06 at cycle  13 NSaved=  13.
 NSaved=13 IEnMin=13 EnMin= -165.444905666145     IErMin=13 ErrMin= 3.41D-06
 ErrMax= 3.41D-06  0.00D+00 EMaxC= 1.00D-01 BMatC= 9.40D-10 BMatP= 1.01D-08
 IDIUse=1 WtCom= 1.00D+00 WtEn= 0.00D+00
 Coeff-Com: -0.596D-04 0.183D-03 0.127D-03-0.228D-02-0.131D-01 0.244D-01
 Coeff-Com: -0.924D-04-0.563D-02 0.293D-01-0.298D+00 0.851D+00-0.112D+01
 Coeff-Com:  0.154D+01
 Coeff:     -0.596D-04 0.183D-03 0.127D-03-0.228D-02-0.131D-01 0.244D-01
 Coeff:     -0.924D-04-0.563D-02 0.293D-01-0.298D+00 0.851D+00-0.112D+01
 Coeff:      0.154D+01
 Gap=     0.585 Goal=   None    Shift=    0.000
 Gap=     0.592 Goal=   None    Shift=    0.000
 RMSDP=8.33D-06 MaxDP=7.55D-05 DE=-4.02D-08 OVMax= 0.00D+00

 Cycle  14  Pass 1  IDiag  1:
 E= -165.444905668056     Delta-E=       -0.000000001911 Rises=F Damp=F
 DIIS: error= 1.69D-06 at cycle  14 NSaved=  14.
 NSaved=14 IEnMin=14 EnMin= -165.444905668056     IErMin=14 ErrMin= 1.69D-06
 ErrMax= 1.69D-06  0.00D+00 EMaxC= 1.00D-01 BMatC= 2.03D-10 BMatP= 9.40D-10
 IDIUse=1 WtCom= 1.00D+00 WtEn= 0.00D+00
 Coeff-Com:  0.427D-04-0.164D-03-0.398D-03 0.197D-02 0.983D-02-0.193D-01
 Coeff-Com:  0.226D-02 0.225D-03-0.156D-01 0.178D+00-0.511D+00 0.687D+00
 Coeff-Com: -0.134D+01 0.200D+01
 Coeff:      0.427D-04-0.164D-03-0.398D-03 0.197D-02 0.983D-02-0.193D-01
 Coeff:      0.226D-02 0.225D-03-0.156D-01 0.178D+00-0.511D+00 0.687D+00
 Coeff:     -0.134D+01 0.200D+01
 Gap=     0.585 Goal=   None    Shift=    0.000
 Gap=     0.592 Goal=   None    Shift=    0.000
 RMSDP=4.95D-06 MaxDP=5.11D-05 DE=-1.91D-09 OVMax= 0.00D+00

 Cycle  15  Pass 1  IDiag  1:
 E= -165.444905668530     Delta-E=       -0.000000000474 Rises=F Damp=F
 DIIS: error= 1.16D-06 at cycle  15 NSaved=  15.
 NSaved=15 IEnMin=15 EnMin= -165.444905668530     IErMin=15 ErrMin= 1.16D-06
 ErrMax= 1.16D-06  0.00D+00 EMaxC= 1.00D-01 BMatC= 5.84D-11 BMatP= 2.03D-10
 IDIUse=1 WtCom= 1.00D+00 WtEn= 0.00D+00
 Coeff-Com:  0.726D-05-0.215D-03 0.315D-03 0.280D-03-0.125D-02-0.242D-05
 Coeff-Com:  0.600D-02-0.248D-02 0.574D-02-0.366D-01 0.102D+00-0.147D+00
 Coeff-Com:  0.549D+00-0.149D+01 0.201D+01
 Coeff:      0.726D-05-0.215D-03 0.315D-03 0.280D-03-0.125D-02-0.242D-05
 Coeff:      0.600D-02-0.248D-02 0.574D-02-0.366D-01 0.102D+00-0.147D+00
 Coeff:      0.549D+00-0.149D+01 0.201D+01
 Gap=     0.585 Goal=   None    Shift=    0.000
 Gap=     0.592 Goal=   None    Shift=    0.000
 RMSDP=2.95D-06 MaxDP=3.06D-05 DE=-4.74D-10 OVMax= 0.00D+00

 Cycle  16  Pass 1  IDiag  1:
 E= -165.444905668656     Delta-E=       -0.000000000126 Rises=F Damp=F
 DIIS: error= 6.62D-07 at cycle  16 NSaved=  16.
 NSaved=16 IEnMin=16 EnMin= -165.444905668656     IErMin=16 ErrMin= 6.62D-07
 ErrMax= 6.62D-07  0.00D+00 EMaxC= 1.00D-01 BMatC= 1.20D-11 BMatP= 5.84D-11
 IDIUse=1 WtCom= 1.00D+00 WtEn= 0.00D+00
 Coeff-Com: -0.763D-05 0.583D-04-0.102D-03-0.181D-03-0.104D-02 0.213D-02
 Coeff-Com: -0.143D-02-0.774D-03 0.216D-02-0.207D-01 0.597D-01-0.829D-01
 Coeff-Com:  0.632D-01 0.238D+00-0.869D+00 0.161D+01
 Coeff:     -0.763D-05 0.583D-04-0.102D-03-0.181D-03-0.104D-02 0.213D-02
 Coeff:     -0.143D-02-0.774D-03 0.216D-02-0.207D-01 0.597D-01-0.829D-01
 Coeff:      0.632D-01 0.238D+00-0.869D+00 0.161D+01
 Gap=     0.585 Goal=   None    Shift=    0.000
 Gap=     0.592 Goal=   None    Shift=    0.000
 RMSDP=1.41D-06 MaxDP=1.65D-05 DE=-1.26D-10 OVMax= 0.00D+00

 Cycle  17  Pass 1  IDiag  1:
 E= -165.444905668695     Delta-E=       -0.000000000039 Rises=F Damp=F
 DIIS: error= 1.34D-07 at cycle  17 NSaved=  17.
 NSaved=17 IEnMin=17 EnMin= -165.444905668695     IErMin=17 ErrMin= 1.34D-07
 ErrMax= 1.34D-07  0.00D+00 EMaxC= 1.00D-01 BMatC= 1.03D-12 BMatP= 1.20D-11
 IDIUse=1 WtCom= 1.00D+00 WtEn= 0.00D+00
 Coeff-Com:  0.240D-05-0.144D-04 0.238D-04 0.359D-04 0.412D-03-0.689D-03
 Coeff-Com:  0.530D-03 0.393D-03-0.641D-03 0.492D-02-0.170D-01 0.293D-01
 Coeff-Com: -0.441D-01-0.487D-01 0.270D+00-0.834D+00 0.164D+01
 Coeff:      0.240D-05-0.144D-04 0.238D-04 0.359D-04 0.412D-03-0.689D-03
 Coeff:      0.530D-03 0.393D-03-0.641D-03 0.492D-02-0.170D-01 0.293D-01
 Coeff:     -0.441D-01-0.487D-01 0.270D+00-0.834D+00 0.164D+01
 Gap=     0.585 Goal=   None    Shift=    0.000
 Gap=     0.592 Goal=   None    Shift=    0.000
 RMSDP=4.07D-07 MaxDP=4.34D-06 DE=-3.89D-11 OVMax= 0.00D+00

 Cycle  18  Pass 1  IDiag  1:
 E= -165.444905668698     Delta-E=       -0.000000000003 Rises=F Damp=F
 DIIS: error= 7.26D-08 at cycle  18 NSaved=  18.
 NSaved=18 IEnMin=18 EnMin= -165.444905668698     IErMin=18 ErrMin= 7.26D-08
 ErrMax= 7.26D-08  0.00D+00 EMaxC= 1.00D-01 BMatC= 2.40D-13 BMatP= 1.03D-12
 IDIUse=1 WtCom= 1.00D+00 WtEn= 0.00D+00
 Coeff-Com: -0.150D-05-0.566D-06 0.284D-04-0.536D-04-0.469D-03 0.766D-03
 Coeff-Com: -0.622D-04-0.156D-03 0.722D-03-0.617D-02 0.190D-01-0.291D-01
 Coeff-Com:  0.738D-01-0.121D+00 0.105D+00 0.166D+00-0.943D+00 0.173D+01
 Coeff:     -0.150D-05-0.566D-06 0.284D-04-0.536D-04-0.469D-03 0.766D-03
 Coeff:     -0.622D-04-0.156D-03 0.722D-03-0.617D-02 0.190D-01-0.291D-01
 Coeff:      0.738D-01-0.121D+00 0.105D+00 0.166D+00-0.943D+00 0.173D+01
 Gap=     0.585 Goal=   None    Shift=    0.000
 Gap=     0.592 Goal=   None    Shift=    0.000
 RMSDP=1.10D-07 MaxDP=1.07D-06 DE=-2.53D-12 OVMax= 0.00D+00

 Cycle  19  Pass 1  IDiag  1:
 E= -165.444905668698     Delta-E=        0.000000000000 Rises=F Damp=F
 DIIS: error= 2.58D-08 at cycle  19 NSaved=  19.
 NSaved=19 IEnMin=19 EnMin= -165.444905668698     IErMin=19 ErrMin= 2.58D-08
 ErrMax= 2.58D-08  0.00D+00 EMaxC= 1.00D-01 BMatC= 3.69D-14 BMatP= 2.40D-13
 IDIUse=1 WtCom= 1.00D+00 WtEn= 0.00D+00
 Large coefficients: NSaved= 19 BigCof=    0.00 CofMax=   10.00 Det=-4.38D-15
 Inversion failed.  Reducing to 18 matrices.
 Large coefficients: NSaved= 18 BigCof=    0.00 CofMax=   10.00 Det=-5.48D-15
 Inversion failed.  Reducing to 17 matrices.
 Large coefficients: NSaved= 17 BigCof=    0.00 CofMax=   10.00 Det=-9.07D-15
 Inversion failed.  Reducing to 16 matrices.
 Coeff-Com: -0.847D-05 0.170D-04-0.242D-06 0.710D-04 0.237D-04 0.364D-04
 Coeff-Com: -0.868D-03 0.192D-02-0.142D-02 0.580D-03-0.806D-02 0.125D-01
 Coeff-Com: -0.587D-01 0.271D+00-0.910D+00 0.169D+01
 Coeff:     -0.847D-05 0.170D-04-0.242D-06 0.710D-04 0.237D-04 0.364D-04
 Coeff:     -0.868D-03 0.192D-02-0.142D-02 0.580D-03-0.806D-02 0.125D-01
 Coeff:     -0.587D-01 0.271D+00-0.910D+00 0.169D+01
 Gap=     0.585 Goal=   None    Shift=    0.000
 Gap=     0.592 Goal=   None    Shift=    0.000
 RMSDP=2.65D-08 MaxDP=1.58D-07 DE=-1.99D-13 OVMax= 0.00D+00

 Cycle  20  Pass 1  IDiag  1:
 E= -165.444905668698     Delta-E=        0.000000000000 Rises=F Damp=F
 DIIS: error= 1.46D-08 at cycle  20 NSaved=  17.
 NSaved=17 IEnMin=17 EnMin= -165.444905668698     IErMin=17 ErrMin= 1.46D-08
 ErrMax= 1.46D-08  0.00D+00 EMaxC= 1.00D-01 BMatC= 9.75D-15 BMatP= 3.69D-14
 IDIUse=1 WtCom= 1.00D+00 WtEn= 0.00D+00
 Large coefficients: NSaved= 17 BigCof=    0.00 CofMax=   10.00 Det=-1.42D-15
 Inversion failed.  Reducing to 16 matrices.
 Large coefficients: NSaved= 16 BigCof=    0.00 CofMax=   10.00 Det=-1.90D-15
 Inversion failed.  Reducing to 15 matrices.
 Coeff-Com:  0.489D-06 0.627D-06-0.442D-05 0.230D-04-0.558D-05-0.213D-03
 Coeff-Com:  0.627D-03-0.205D-02 0.229D-02 0.525D-02-0.295D-01 0.505D-01
 Coeff-Com:  0.137D+00-0.995D+00 0.183D+01
 Coeff:      0.489D-06 0.627D-06-0.442D-05 0.230D-04-0.558D-05-0.213D-03
 Coeff:      0.627D-03-0.205D-02 0.229D-02 0.525D-02-0.295D-01 0.505D-01
 Coeff:      0.137D+00-0.995D+00 0.183D+01
 Gap=     0.585 Goal=   None    Shift=    0.000
 Gap=     0.592 Goal=   None    Shift=    0.000
 RMSDP=2.86D-08 MaxDP=2.57D-07 DE=-3.41D-13 OVMax= 0.00D+00

 Cycle  21  Pass 1  IDiag  1:
 E= -165.444905668698     Delta-E=        0.000000000000 Rises=F Damp=F
 DIIS: error= 2.61D-09 at cycle  21 NSaved=  16.
 NSaved=16 IEnMin=16 EnMin= -165.444905668698     IErMin=16 ErrMin= 2.61D-09
 ErrMax= 2.61D-09  0.00D+00 EMaxC= 1.00D-01 BMatC= 4.95D-16 BMatP= 9.75D-15
 IDIUse=1 WtCom= 1.00D+00 WtEn= 0.00D+00
 Large coefficients: NSaved= 16 BigCof=    0.00 CofMax=   10.00 Det=-1.33D-16
 Inversion failed.  Reducing to 15 matrices.
 Coeff-Com: -0.174D-05 0.136D-05-0.607D-05-0.107D-04 0.102D-03-0.261D-03
 Coeff-Com:  0.803D-03-0.741D-03-0.297D-02 0.148D-01-0.288D-01-0.368D-01
 Coeff-Com:  0.444D+00-0.104D+01 0.165D+01
 Coeff:     -0.174D-05 0.136D-05-0.607D-05-0.107D-04 0.102D-03-0.261D-03
 Coeff:      0.803D-03-0.741D-03-0.297D-02 0.148D-01-0.288D-01-0.368D-01
 Coeff:      0.444D+00-0.104D+01 0.165D+01
 Gap=     0.585 Goal=   None    Shift=    0.000
 Gap=     0.592 Goal=   None    Shift=    0.000
 RMSDP=3.39D-09 MaxDP=2.22D-08 DE=-2.84D-13 OVMax= 0.00D+00

 SCF Done:  E(UHF) =  -165.444905669     A.U. after   21 cycles
            NFock= 21  Conv=0.34D-08     -V/T= 2.0069
 <Sx>= 0.0000 <Sy>= 0.0000 <Sz>= 1.0000 <S**2>= 2.0975 S= 1.0322
 <L.S>= 0.000000000000E+00
 KE= 1.643081804749D+02 PE=-5.039709847018D+02 EE= 1.172483238979D+02
 Annihilation of the first spin contaminant:
 S**2 before annihilation     2.0975,   after     2.0020
 Leave Link  502 at Fri Apr 15 18:54:01 2022, MaxMem=   131072000 cpu:               0.0 elap:               0.1
 (Enter C:\G16W\l801.exe)
 Range of M.O.s used for correlation:     1    16
 NBasis=    16 NAE=    12 NBE=    10 NFC=     0 NFV=     0
 NROrb=     16 NOA=    12 NOB=    10 NVA=     4 NVB=     6
 Leave Link  801 at Fri Apr 15 18:54:01 2022, MaxMem=   131072000 cpu:               0.0 elap:               0.0
 (Enter C:\G16W\l1101.exe)
 Using compressed storage, NAtomX=     4.
 Will process      5 centers per pass.
 Leave Link 1101 at Fri Apr 15 18:54:01 2022, MaxMem=   131072000 cpu:               0.0 elap:               0.0
 (Enter C:\G16W\l1102.exe)
 Symmetrizing basis deriv contribution to polar:
 IMax=3 JMax=2 DiffMx= 0.00D+00
 Leave Link 1102 at Fri Apr 15 18:54:01 2022, MaxMem=   131072000 cpu:               0.0 elap:               0.0
 (Enter C:\G16W\l1110.exe)
 Forming Gx(P) for the SCF density, NAtomX=     4.
 Integral derivatives from FoFJK, PRISM(SPDF).
 Do as many integral derivatives as possible in FoFJK.
 G2DrvN: MDV=     131071592.
 G2DrvN: will do     5 centers at a time, making    1 passes.
 Calling FoFCou, ICntrl=  3107 FMM=F I1Cent=   0 AccDes= 0.00D+00.
 FoFJK:  IHMeth= 1 ICntrl=    3107 DoSepK=F KAlg= 0 I1Cent=           0 FoldK=F
 IRaf=         0 NMat=       1 IRICut=       1 DoRegI=T DoRafI=F ISym2E= 0 IDoP0=0 IntGTp=1.
 FoFCou: FMM=F IPFlag=           0 FMFlag=      100000 FMFlg1=           0
         NFxFlg=           0 DoJE=F BraDBF=F KetDBF=F FulRan=T
         wScrn=  0.000000 ICntrl=      3107 IOpCl=  1 I1Cent=           0 NGrid=           0
         NMat0=    1 NMatS0=      1 NMatT0=    0 NMatD0=    1 NMtDS0=    0 NMtDT0=    0
 Symmetry not used in FoFCou.
 End of G2Drv F.D. properties file   721 does not exist.
 End of G2Drv F.D. properties file   722 does not exist.
 End of G2Drv F.D. properties file   788 does not exist.
 Leave Link 1110 at Fri Apr 15 18:54:01 2022, MaxMem=   131072000 cpu:               0.0 elap:               0.1
 (Enter C:\G16W\l1002.exe)
 Minotr:  UHF open shell wavefunction.
          IDoAtm=1111
          Direct CPHF calculation.
          Differentiating once with respect to electric field.
                with respect to dipole field.
          Differentiating once with respect to nuclear coordinates.
          Requested convergence is 1.0D-08 RMS, and 1.0D-07 maximum.
          Secondary convergence is 1.0D-12 RMS, and 1.0D-12 maximum.
          NewPWx=T KeepS1=F KeepF1=F KeepIn=T MapXYZ=F SortEE=F KeepMc=T.
 Keep R1 and R2 ints in memory in canonical form, NReq=824015.
 FoFCou: FMM=F IPFlag=           0 FMFlag=           0 FMFlg1=           0
         NFxFlg=           0 DoJE=F BraDBF=F KetDBF=F FulRan=T
         wScrn=  0.000000 ICntrl=       600 IOpCl=  0 I1Cent=           0 NGrid=           0
         NMat0=    1 NMatS0=    136 NMatT0=    0 NMatD0=    1 NMtDS0=    0 NMtDT0=    0
 Symmetry not used in FoFCou.
 Two-electron integral symmetry not used.
          MDV=     131072000 using IRadAn=       1.
          Solving linear equations simultaneously, MaxMat=       0.
          There are    15 degrees of freedom in the 1st order CPHF.  IDoFFX=6 NUNeed=     3.
     12 vectors produced by pass  0 Test12= 7.20D-16 6.67D-09 XBig12= 1.00D+01 1.52D+00.
 AX will form    12 AO Fock derivatives at one time.
     12 vectors produced by pass  1 Test12= 7.20D-16 6.67D-09 XBig12= 7.37D-01 3.06D-01.
     12 vectors produced by pass  2 Test12= 7.20D-16 6.67D-09 XBig12= 2.96D-02 5.21D-02.
     12 vectors produced by pass  3 Test12= 7.20D-16 6.67D-09 XBig12= 3.97D-04 6.91D-03.
     12 vectors produced by pass  4 Test12= 7.20D-16 6.67D-09 XBig12= 2.02D-06 4.09D-04.
     12 vectors produced by pass  5 Test12= 7.20D-16 6.67D-09 XBig12= 1.56D-08 4.49D-05.
     12 vectors produced by pass  6 Test12= 7.20D-16 6.67D-09 XBig12= 7.63D-11 3.18D-06.
      5 vectors produced by pass  7 Test12= 7.20D-16 6.67D-09 XBig12= 1.10D-13 1.44D-07.
      1 vectors produced by pass  8 Test12= 7.20D-16 6.67D-09 XBig12= 4.83D-16 7.13D-09.
 InvSVY:  IOpt=1 It=  1 EMax= 1.11D-15
 Solved reduced A of dimension    90 with    12 vectors.
 FullF1:  Do perturbations      1 to       3.
 Isotropic polarizability for W=    0.000000        9.83 Bohr**3.
 End of Minotr F.D. properties file   721 does not exist.
 End of Minotr F.D. properties file   722 does not exist.
 End of Minotr F.D. properties file   788 does not exist.
 Leave Link 1002 at Fri Apr 15 18:54:01 2022, MaxMem=   131072000 cpu:               0.0 elap:               0.1
 (Enter C:\G16W\l601.exe)
 Copying SCF densities to generalized density rwf, IOpCl= 1 IROHF=0.

 **********************************************************************

            Population analysis using the SCF density.

 **********************************************************************

 Orbital symmetries:
 Alpha Orbitals:
       Occupied  (A) (A) (A) (A) (A) (A) (A) (A) (A) (A) (A) (A)
       Virtual   (A) (A) (A) (A)
 Beta  Orbitals:
       Occupied  (A) (A) (A) (A) (A) (A) (A) (A) (A) (A)
       Virtual   (A) (A) (A) (A) (A) (A)
 The electronic state is 3-A.
 Alpha  occ. eigenvalues --  -20.38648 -15.40445 -11.10921  -1.44814  -1.18858
 Alpha  occ. eigenvalues --   -0.72886  -0.66171  -0.59632  -0.57922  -0.49937
 Alpha  occ. eigenvalues --   -0.46682  -0.26241
 Alpha virt. eigenvalues --    0.32247   0.55134   0.68970   1.05374
  Beta  occ. eigenvalues --  -20.36576 -15.37406 -11.09984  -1.37332  -1.04625
  Beta  occ. eigenvalues --   -0.67759  -0.56779  -0.47542  -0.45878  -0.39577
  Beta virt. eigenvalues --    0.19666   0.28816   0.43593   0.59924   0.74232
  Beta virt. eigenvalues --    1.11719
          Condensed to atoms (all electrons):
               1          2          3          4
     1  H    0.565966   0.301679  -0.040785   0.001181
     2  N    0.301679   6.639379   0.268733  -0.016560
     3  C   -0.040785   0.268733   5.132670   0.448168
     4  O    0.001181  -0.016560   0.448168   7.737153
          Atomic-Atomic Spin Densities.
               1          2          3          4
     1  H   -0.067001  -0.009335  -0.006117   0.000029
     2  N   -0.009335   1.309924  -0.055827  -0.000012
     3  C   -0.006117  -0.055827   0.378158  -0.141737
     4  O    0.000029  -0.000012  -0.141737   0.804918
 Mulliken charges and spin densities:
               1          2
     1  H    0.171958  -0.082425
     2  N   -0.193231   1.244750
     3  C    0.191215   0.174477
     4  O   -0.169942   0.663199
 Sum of Mulliken charges =   0.00000   2.00000
 Mulliken charges and spin densities with hydrogens summed into heavy atoms:
               1          2
     2  N   -0.021273   1.162325
     3  C    0.191215   0.174477
     4  O   -0.169942   0.663199
 APT charges:
               1
     1  H    0.167669
     2  N   -0.105998
     3  C   -0.038961
     4  O   -0.022710
 Sum of APT charges =   0.00000
 APT charges with hydrogens summed into heavy atoms:
               1
     2  N    0.061670
     3  C   -0.038961
     4  O   -0.022710
 Electronic spatial extent (au):  <R**2>=            125.3731
 Charge=              0.0000 electrons
 Dipole moment (field-independent basis, Debye):
    X=              1.2291    Y=              1.2368    Z=              0.1902  Tot=              1.7539
 Quadrupole moment (field-independent basis, Debye-Ang):
   XX=            -15.5780   YY=            -15.7039   ZZ=            -13.9170
   XY=              2.0514   XZ=              0.3579   YZ=              0.1154
 Traceless Quadrupole moment (field-independent basis, Debye-Ang):
   XX=             -0.5117   YY=             -0.6376   ZZ=              1.1493
   XY=              2.0514   XZ=              0.3579   YZ=              0.1154
 Octapole moment (field-independent basis, Debye-Ang**2):
  XXX=              1.6829  YYY=             -0.7678  ZZZ=              0.1760  XYY=             -1.4380
  XXY=              3.8067  XXZ=              0.4261  XZZ=             -1.3597  YZZ=             -0.3353
  YYZ=              0.2237  XYZ=              0.0694
 Hexadecapole moment (field-independent basis, Debye-Ang**3):
 XXXX=            -98.6154 YYYY=            -17.0683 ZZZZ=             -8.8215 XXXY=              6.4257
 XXXZ=              0.9737 YYYX=              1.9880 YYYZ=              0.1302 ZZZX=             -0.0769
 ZZZY=              0.0440 XXYY=            -19.5696 XXZZ=            -17.6546 YYZZ=             -4.2390
 XXYZ=              0.2262 YYXZ=              0.1272 ZZXY=              0.3439
 N-N= 5.696957466023D+01 E-N=-5.039709846862D+02  KE= 1.643081804749D+02
  Exact polarizability:  17.207   2.609   6.087   0.052  -0.147   6.191
 Approx polarizability:  16.928   2.801   5.493  -0.171   0.063   2.829
                          Isotropic Fermi Contact Couplings
        Atom                 a.u.       MegaHertz       Gauss      10(-4) cm-1
     1  H(1)              -0.02696     -60.25712     -21.50124     -20.09961
     2  N(14)              0.13825      22.33501       7.96969       7.45016
     3  C(13)              0.25882     145.47934      51.91065      48.52668
     4  O(17)              0.11257     -34.11964     -12.17474     -11.38109
 --------------------------------------------------------
       Center         ----  Spin Dipole Couplings  ----
                      3XX-RR        3YY-RR        3ZZ-RR
 --------------------------------------------------------
     1   Atom        0.027916      0.042367     -0.070283
     2   Atom       -0.637088     -0.691933      1.329021
     3   Atom       -0.082268      0.756719     -0.674452
     4   Atom       -0.989249      0.388699      0.600551
 --------------------------------------------------------
                        XY            XZ            YZ
 --------------------------------------------------------
     1   Atom        0.140232      0.025248      0.024944
     2   Atom       -0.308456     -0.176053     -0.276120
     3   Atom        0.096800     -0.017306     -0.033675
     4   Atom       -0.056524      0.161437     -0.173363
 --------------------------------------------------------


 ---------------------------------------------------------------------------------
              Anisotropic Spin Dipole Couplings in Principal Axis System
 ---------------------------------------------------------------------------------

       Atom             a.u.   MegaHertz   Gauss  10(-4) cm-1        Axes

              Baa    -0.1053   -56.193   -20.051   -18.744  0.7278 -0.6848 -0.0369
     1 H(1)   Bbb    -0.0753   -40.154   -14.328   -13.394 -0.0694 -0.1271  0.9895
              Bcc     0.1806    96.347    34.379    32.138  0.6823  0.7175  0.1400
 
              Baa    -1.0186   -39.285   -14.018   -13.104  0.6602  0.7386  0.1364
     2 N(14)  Bbb    -0.3566   -13.752    -4.907    -4.587  0.7481 -0.6629 -0.0305
              Bcc     1.3752    53.037    18.925    17.691 -0.0679 -0.1221  0.9902
 
              Baa    -0.6756   -90.663   -32.351   -30.242  0.0256  0.0218  0.9994
     3 C(13)  Bbb    -0.0930   -12.478    -4.452    -4.162  0.9932 -0.1141 -0.0230
              Bcc     0.7686   103.140    36.803    34.404  0.1135  0.9932 -0.0245
 
              Baa    -1.0066    72.835    25.989    24.295  0.9949  0.0283 -0.0969
     4 O(17)  Bbb     0.2921   -21.137    -7.542    -7.051  0.0220  0.8764  0.4811
              Bcc     0.7145   -51.698   -18.447   -17.245  0.0985 -0.4808  0.8713
 

 ---------------------------------------------------------------------------------

 No NMR shielding tensors so no spin-rotation constants.
 Leave Link  601 at Fri Apr 15 18:54:01 2022, MaxMem=   131072000 cpu:               0.0 elap:               0.1
 (Enter C:\G16W\l701.exe)
 SCFChk:  SCF convergence  3.39D-09 required  1.00D-08
 ... and contract with generalized density number  0.
 Compute integral second derivatives.
 Entering OneElI...
 Calculate overlap and kinetic energy integrals
    NBasis =  16  MinDer = 2  MaxDer = 2
 Requested accuracy = 0.1000D-12
 PrmmSu-InSpLW:  IPartL=    0 NPrtUS=    1 NPrtUL=    1 DoSpLW=F IThBeg=    0 IThEnd=    0 NThAct=    1.
 PrsmSu:  NPrtUS=   1 ThrOK=F IAlg=1 NPAlg=1 LenDen=           0 ISkipM=0 DoSpLW=F IThBeg=    0 IThEnd=    0.
 Prism:   IPart=     0 DynPar=F LinDyn=F Incr=           1.
 PRISM was handed   131065534 working-precision words and    28 shell-pairs
 IPart=  0 NShTot=          28 NBatch=           8 AvBLen=         3.5
 PrSmSu:  NxtVal=              2.
 Entering OneElI...
 Calculate potential energy integrals
    NBasis =  16  MinDer = 2  MaxDer = 2
 Requested accuracy = 0.1000D-12
 PrmmSu-InSpLW:  IPartL=    0 NPrtUS=    1 NPrtUL=    1 DoSpLW=F IThBeg=    0 IThEnd=    0 NThAct=    1.
 PrsmSu:  NPrtUS=   1 ThrOK=F IAlg=1 NPAlg=1 LenDen=           0 ISkipM=0 DoSpLW=F IThBeg=    0 IThEnd=    0.
 Prism:   IPart=     0 DynPar=F LinDyn=F Incr=           1.
 PRISM was handed   131065828 working-precision words and    27 shell-pairs
 IPart=  0 NShTot=         108 NBatch=          27 AvBLen=         4.0
 PrSmSu:  NxtVal=              2.
 Polarizability after L701:
                1             2             3 
      1  0.172067D+02
      2  0.260912D+01  0.608705D+01
      3  0.518778D-01 -0.147032D+00  0.619112D+01
 Dipole Derivatives after L701:
                 1             2             3             4             5 
      1   0.217354D+00 -0.141372D+00 -0.166481D-01 -0.625466D-01  0.139319D+00
      2  -0.719802D-01 -0.781934D-02 -0.452417D-01  0.222320D-01  0.290541D-01
      3  -0.153404D-01 -0.464704D-01  0.293471D+00  0.158707D-02  0.638114D-01
                 6             7             8             9            10 
      1   0.212858D-01 -0.276264D+00 -0.117067D+00  0.194590D-02  0.121457D+00
      2   0.655588D-01 -0.616366D-01  0.124441D+00 -0.217816D-01  0.111385D+00
      3  -0.284502D+00  0.409572D-01 -0.269935D-02  0.349418D-01 -0.272039D-01
                11            12 
      1   0.119121D+00 -0.658360D-02
      2  -0.145676D+00  0.146455D-02
      3  -0.146417D-01 -0.439111D-01
 Hessian after L701:
                1             2             3             4             5 
      1  0.187865D+01
      2 -0.845809D+00  0.163007D+01
      3 -0.139307D+00 -0.168829D+00  0.241792D+01
      4 -0.179966D+01  0.712771D+00  0.139361D+00  0.684341D+00
      5  0.871446D+00 -0.171239D+01  0.169664D+00  0.998459D+00  0.605339D+01
      6  0.164450D+00  0.159331D+00 -0.243570D+01 -0.228521D+00 -0.105509D+00
      7 -0.197500D+00  0.416549D-01 -0.892127D-02  0.231564D+00 -0.170108D+01
      8 -0.817427D-01  0.933343D-01 -0.535989D-02 -0.151429D+01 -0.387435D+01
      9 -0.321083D-01  0.721100D-02  0.488934D-01  0.114819D+00 -0.640869D-01
     10  0.118508D+00  0.913838D-01  0.886797D-02  0.883753D+00 -0.168821D+00
     11  0.561061D-01 -0.110189D-01  0.452467D-02 -0.196937D+00 -0.466649D+00
     12  0.696573D-02  0.228733D-02 -0.311128D-01 -0.256588D-01 -0.680609D-04
                6             7             8             9            10 
      6  0.762041D+01
      7  0.925631D-01  0.748269D+00
      8 -0.505583D-01 -0.178283D+01  0.123850D+02
      9 -0.462032D+01  0.449387D+00  0.351783D+00  0.162172D+02
     10 -0.284918D-01 -0.782334D+00  0.337886D+01 -0.532098D+00 -0.219928D+00
     11 -0.326302D-02  0.344225D+01 -0.860400D+01 -0.294907D+00 -0.330142D+01
     12 -0.564384D+00 -0.533029D+00 -0.295865D+00 -0.116458D+02  0.551722D+00
               11            12 
     11  0.908167D+01
     12  0.293646D+00  0.122413D+02
 Leave Link  701 at Fri Apr 15 18:54:02 2022, MaxMem=   131072000 cpu:               0.0 elap:               0.1
 (Enter C:\G16W\l702.exe)
 L702 exits ... SP integral derivatives will be done elsewhere.
 Leave Link  702 at Fri Apr 15 18:54:02 2022, MaxMem=   131072000 cpu:               0.0 elap:               0.0
 (Enter C:\G16W\l703.exe)
 Integral derivatives from FoFJK, PRISM(SPDF).
 Compute integral second derivatives, UseDBF=F ICtDFT=           0.
 ICntrl=    100127.
 Calling FoFJK, ICntrl=    100127 FMM=F ISym2X=0 I1Cent= 0 IOpClX= 1 NMat=1 NMatS=1 NMatT=0.
 FoFJK:  IHMeth= 1 ICntrl=  100127 DoSepK=F KAlg= 0 I1Cent=           0 FoldK=F
 IRaf=         0 NMat=       1 IRICut=       1 DoRegI=T DoRafI=F ISym2E= 0 IDoP0=0 IntGTp=1.
 FoFCou: FMM=F IPFlag=           0 FMFlag=      100000 FMFlg1=         800
         NFxFlg=           0 DoJE=F BraDBF=F KetDBF=F FulRan=T
         wScrn=  0.000000 ICntrl=    100127 IOpCl=  1 I1Cent=           0 NGrid=           0
         NMat0=    1 NMatS0=      1 NMatT0=    0 NMatD0=    1 NMtDS0=    0 NMtDT0=    0
 Symmetry not used in FoFCou.
 FoFCou:  KetSym=F NOpSet=  1 NOpAb=1 NOp=  1.
 FoFCou:  CnvScl= 1.00D+00 Thresh= 1.00D-12 IAcrcy=      10.
 PrismS was handed   131065892 working-precision words and    27 shell-pairs
 FoFCou: LinMIO=F DoNuc=F BraDBF=F KetDBF=F HaveP=T PDBF=F HaveZ=T HaveW=F
         NIJTC =       3 NIJTAt=       0 NIJTCD=       0 NIJTT =       3
         IJTBeg=       1 IJTEnd=       3 KLTBeg=       1 KLTEnd=       3
         IPTBeg=       1 IPTEnd=       3 IPTBCv=       1 IPTECv=       3
         IZTBeg=       1 IZTEnd=       3 IZTBCv=       1 IZTECv=       3
         IWTBeg=       4 IWTEnd=       3 IWTBCv=       4 IWTECv=       3
         INTBeg=       1 INTEnd=       0 IFTBCv=       1 IFTECv=       3
 NCel replicated for PrismC:     1
 CoulSu-InSpLW:  IPartL=    0 NPrtUS=    1 NPrtUL=    1 DoSpLW=F IThBeg=    0 IThEnd=    0 NThAct=    1.
 CoulSu:  IncDef=  1024 NBBP=            378 NTPThr=   100 NPartT=    1 Incr=           3 LDynOK=F GPUOK=T.
 CoulSu:  NPrtUS=   1 ThrOK=F IAlg=1 NPAlg=1 LenDen=           0 LWGrdD=           0 DoCopy=F ISkipM=0
          DoSpLW=F IThBeg=    0 IThEnd=    0.
 Enter PrismC:  IPart=  0 JobTyp=22 DoJE=F Cont=F.
 PrismC:  IPart=     0 DynPar=F LinDyn=F Incr=           3 UseFst=F UseS4=T ISplat=2.
 PrismC was handed   131065803 working-precision words and    27 shell-pairs
 IPart=  0 NShTot=         376 NShNF=         376 NShFF=           0 MinMC=      10
           NShCPU=         376 NBCPU=          43 AvBCPU=         8.7
           NShGPU=           0 NBGPU=           0 AvBGPU=         0.0
 CoulSu:  NxtVal=              4 LenVP=      131065804 MinMC=      10.
 Polarizability after L703:
                1             2             3 
      1  0.172067D+02
      2  0.260912D+01  0.608705D+01
      3  0.518778D-01 -0.147032D+00  0.619112D+01
 Dipole Derivatives after L703:
                 1             2             3             4             5 
      1   0.217354D+00 -0.141372D+00 -0.166481D-01 -0.625466D-01  0.139319D+00
      2  -0.719802D-01 -0.781934D-02 -0.452417D-01  0.222320D-01  0.290541D-01
      3  -0.153404D-01 -0.464704D-01  0.293471D+00  0.158707D-02  0.638114D-01
                 6             7             8             9            10 
      1   0.212858D-01 -0.276264D+00 -0.117067D+00  0.194590D-02  0.121457D+00
      2   0.655588D-01 -0.616366D-01  0.124441D+00 -0.217816D-01  0.111385D+00
      3  -0.284502D+00  0.409572D-01 -0.269935D-02  0.349418D-01 -0.272039D-01
                11            12 
      1   0.119121D+00 -0.658360D-02
      2  -0.145676D+00  0.146455D-02
      3  -0.146417D-01 -0.439111D-01
 Hessian after L703:
                1             2             3             4             5 
      1  0.260954D+00
      2  0.229199D+00  0.328585D+00
      3  0.448323D-01  0.527738D-01  0.112971D-01
      4 -0.224134D+00 -0.272047D+00 -0.501359D-01  0.524589D+00
      5 -0.189357D+00 -0.339254D+00 -0.477844D-01  0.153346D+00  0.435051D+00
      6 -0.399528D-01 -0.563077D-01 -0.830554D-02  0.535155D-01  0.512230D-01
      7 -0.319056D-01  0.374845D-01  0.107105D-01 -0.690609D-01 -0.276338D-01
      8 -0.479572D-01  0.132173D-01 -0.485942D-02  0.179605D+00 -0.173280D+00
      9 -0.426684D-02  0.445056D-02 -0.843343D-02 -0.919704D-02 -0.417108D-03
     10 -0.491412D-02  0.536274D-02 -0.540690D-02 -0.231394D+00  0.636444D-01
     11  0.811441D-02 -0.254804D-02 -0.130020D-03 -0.609043D-01  0.774836D-01
     12 -0.612653D-03 -0.916690D-03  0.544188D-02  0.581741D-02 -0.302156D-02
                6             7             8             9            10 
      6 -0.192354D-01
      7 -0.122596D-01  0.980867D+00
      8  0.943106D-02  0.409805D+00  0.415522D+00
      9  0.410222D-01 -0.616224D-01 -0.391129D-01 -0.115375D+00
     10 -0.130315D-02 -0.879901D+00 -0.541453D+00  0.750863D-01  0.111621D+01
     11 -0.434643D-02 -0.419656D+00 -0.255459D+00  0.350795D-01  0.472446D+00
     12 -0.134812D-01  0.631715D-01  0.345413D-01  0.827859D-01 -0.683762D-01
               11            12 
     11  0.180523D+00
     12 -0.306030D-01 -0.747466D-01
 Leave Link  703 at Fri Apr 15 18:54:02 2022, MaxMem=   131072000 cpu:               0.0 elap:               0.1
 (Enter C:\G16W\l716.exe)
 FrcOut:
 IF    =        44 IFX   =        56 IFXYZ =        68
 IFFX  =        80 IFFFX =       158 IFLen =        12
 IFFLen=        78 IFFFLn=         0 IEDerv=       158
 LEDerv=       629 IFroze=       957 ICStrt=      1554
 Dipole        = 4.83549538D-01 4.86578282D-01 7.48160197D-02
 DipoleDeriv   = 2.17353965D-01-7.19801902D-02-1.53403912D-02
                -1.41372233D-01-7.81934073D-03-4.64703521D-02
                -1.66481437D-02-4.52417342D-02 2.93471146D-01
                -6.25466409D-02 2.22320293D-02 1.58707189D-03
                 1.39318921D-01 2.90541246D-02 6.38114127D-02
                 2.12858441D-02 6.55587732D-02-2.84501848D-01
                -2.76264463D-01-6.16365847D-02 4.09571737D-02
                -1.17067419D-01 1.24440735D-01-2.69934569D-03
                 1.94590373D-03-2.17815886D-02 3.49417634D-02
                 1.21457139D-01 1.11384746D-01-2.72038544D-02
                 1.19120731D-01-1.45675518D-01-1.46417148D-02
                -6.58360411D-03 1.46454952D-03-4.39110612D-02
 Polarizability= 1.72066630D+01 2.60912265D+00 6.08704884D+00
                 5.18778371D-02-1.47031899D-01 6.19111716D+00
 HyperPolar    =-7.59863306D+00 1.97172435D+01-5.24328769D-01
                 1.54191090D+01 1.85508264D+00-9.15323040D-01
                -4.86873384D+00 2.82357014D+00 1.52897251D+01
                 4.38640545D+00
 Quadrupole    =-3.80443961D-01-4.74022088D-01 8.54466048D-01
                 1.52514252D+00 2.66092479D-01 8.58001156D-02
 VibFq2-Diag1:  N=     12 IV=           5 MDV=   131069602 NE2=    10922466
 Full mass-weighted force constant matrix:
 Low frequencies --- -640.0721 -320.3561 -233.7071   -0.0010   -0.0010   -0.0007
 Low frequencies ---  247.9965  445.2512 1024.3114
 OrtVCM:  Ph=1 IPass= 1 DotMx1= 0.00D+00
 OrtVCM:  IS=    1 I=    1 IndO=    1 Dot= 1.00D+00 DotN= 1.00D+00 ElMax1= 6.10D-01 ElMax1N= 6.10D-01
 OrtVCM:  Ph=2 NNew=    0 IAdd=    2 IPass= 1 DotMx2= 0.00D+00
 OrtVCM:  IS=    1 I=    2 IndO=    2 Dot= 1.00D+00 DotN= 1.00D+00 ElMax1= 6.10D-01 ElMax1N= 6.10D-01
 OrtVCM:  Ph=2 NNew=    0 IAdd=    3 IPass= 1 DotMx2= 0.00D+00
 OrtVCM:  IS=    1 I=    3 IndO=    3 Dot= 1.00D+00 DotN= 1.00D+00 ElMax1= 6.10D-01 ElMax1N= 6.10D-01
 OrtVCM:  Ph=2 NNew=    0 IAdd=    4 IPass= 1 DotMx2= 1.94D-16
 OrtVCM:  IS=    1 I=    4 IndO=    4 Dot= 1.00D+00 DotN= 1.00D+00 ElMax1= 7.29D-01 ElMax1N= 7.29D-01
 OrtVCM:  Ph=2 NNew=    0 IAdd=    5 IPass= 1 DotMx2= 2.50D-16
 OrtVCM:  IS=    1 I=    5 IndO=    5 Dot= 1.00D+00 DotN= 1.00D+00 ElMax1= 6.83D-01 ElMax1N= 6.83D-01
 OrtVCM:  Ph=2 NNew=    0 IAdd=    6 IPass= 1 DotMx2= 2.32D-16
 OrtVCM:  IS=    1 I=    6 IndO=    6 Dot= 1.00D+00 DotN= 1.00D+00 ElMax1= 6.62D-01 ElMax1N= 6.62D-01
 OrtVCM:  Ph=1 IPass= 1 DotMx1= 6.83D-01
 OrtVCM:  Ph=1 IPass= 2 DotMx1= 2.01D-16
 OrtVCM:  IS=    1 I=    1 IndO=    7 Dot= 9.69D-01 DotN= 9.69D-01 ElMax1= 9.69D-01 ElMax1N= 9.69D-01
 OrtVCM:  Ph=2 NNew=    0 IAdd=    2 IPass= 1 DotMx2= 2.38D-02
 OrtVCM:  Ph=2 NNew=    0 IAdd=    2 IPass= 2 DotMx2= 1.25D-17
 OrtVCM:  IS=    1 I=    2 IndO=    8 Dot= 8.93D-01 DotN= 8.93D-01 ElMax1= 8.93D-01 ElMax1N= 8.93D-01
 OrtVCM:  Ph=2 NNew=    0 IAdd=    3 IPass= 1 DotMx2= 3.73D-02
 OrtVCM:  Ph=2 NNew=    0 IAdd=    3 IPass= 2 DotMx2= 7.81D-18
 OrtVCM:  IS=    1 I=    3 IndO=    9 Dot= 7.39D-01 DotN= 7.39D-01 ElMax1= 7.39D-01 ElMax1N= 7.39D-01
 OrtVCM:  Ph=2 NNew=    0 IAdd=    4 IPass= 1 DotMx2= 7.84D-02
 OrtVCM:  Ph=2 NNew=    0 IAdd=    4 IPass= 2 DotMx2= 3.00D-17
 OrtVCM:  IS=    1 I=    4 IndO=   10 Dot= 6.53D-01 DotN= 6.53D-01 ElMax1= 6.53D-01 ElMax1N= 6.53D-01
 OrtVCM:  Ph=2 NNew=    0 IAdd=    5 IPass= 1 DotMx2= 2.86D-01
 OrtVCM:  Ph=2 NNew=    0 IAdd=    5 IPass= 2 DotMx2= 1.87D-16
 OrtVCM:  IS=    1 I=    5 IndO=   11 Dot= 1.40D-01 DotN= 1.40D-01 ElMax1= 2.96D-01 ElMax1N= 2.96D-01
 OrtVCM:  Ph=2 NNew=    0 IAdd=    6 IPass= 1 DotMx2= 1.20D-01
 OrtVCM:  Ph=2 NNew=    0 IAdd=    6 IPass= 2 DotMx2= 1.96D-17
 OrtVCM:  IS=    1 I=    6 IndO=    0 Dot= 1.00D-34 DotN= 1.00D-34 ElMax1= 5.58D-18 ElMax1N= 5.58D-18
 SchOr2:  IPass= 1 Test2A= 1.00D-01 IOff=     0 NDo=     6 NNew=     5
 OrtVCM:  Ph=1 IPass= 1 DotMx1= 5.28D-01
 OrtVCM:  Ph=1 IPass= 2 DotMx1= 1.67D-16
 OrtVCM:  IS=    1 I=    1 IndO=   12 Dot= 4.86D-01 DotN= 4.86D-01 ElMax1= 4.86D-01 ElMax1N= 4.86D-01
 SchOr2:  IPass= 1 Test2A= 1.00D-01 IOff=     6 NDo=     1 NNew=     1
 VibFq2-Diag2:  N=      6 IV=           5 MDV=   131069602 NE2=    21844933
 Dipole derivative wrt mode   1: -3.19133D-01 -6.94679D-01  7.75176D+00
 Vibrational polarizability contributions from mode   1       0.4234833       2.0066036     249.8577822
 Dipole derivative wrt mode   2:  1.54233D+00  1.39138D+00 -1.64548D+00
 Vibrational polarizability contributions from mode   2       0.3531438       0.2874017       0.4019592
 Dipole derivative wrt mode   3:  8.29449D-01  4.90160D-01 -8.60994D-01
 Vibrational polarizability contributions from mode   3       0.0177113       0.0061851       0.0190841
 Dipole derivative wrt mode   4:  7.43953D+00 -1.73915D+00  6.65786D-01
 Vibrational polarizability contributions from mode   4       0.7925363       0.0433112       0.0063474
 Dipole derivative wrt mode   5: -3.93971D+00  3.25383D-02  3.71445D-01
 Vibrational polarizability contributions from mode   5       0.0888153       0.0000061       0.0007895
 Dipole derivative wrt mode   6:  7.77977D-01 -1.85393D+00 -2.09617D-01
 Vibrational polarizability contributions from mode   6       0.0010828       0.0061488       0.0000786
 Diagonal vibrational polarizability:
        1.6767728       2.3496564     250.2860410
 NorSel:  MapVib=      1      2      3      4      5      6
 Harmonic frequencies (cm**-1), IR intensities (KM/Mole), Raman scattering
 activities (A**4/AMU), depolarization ratios for plane and unpolarized
 incident light, reduced masses (AMU), force constants (mDyne/A),
 and normal coordinates:
                      1                      2                      3
                      A                      A                      A
 Frequencies --     80.4489               425.7621              1022.4239
 Red. masses --      1.3808                 6.1434                10.8757
 Frc consts  --      0.0053                 0.6561                 6.6984
 IR Inten    --     60.6742                 7.0223                 1.6696
  Atom  AN      X      Y      Z        X      Y      Z        X      Y      Z
     1   1    -0.07  -0.13   0.97     0.34  -0.54  -0.43     0.40   0.03  -0.16
     2   7    -0.01  -0.01  -0.03    -0.28  -0.11   0.04     0.59  -0.24   0.02
     3   6    -0.02   0.04  -0.15    -0.04   0.46   0.01    -0.51   0.36   0.00
     4   8     0.03  -0.01   0.08     0.25  -0.21  -0.02    -0.16  -0.06  -0.01
                      4                      5                      6
                      A                      A                      A
 Frequencies --   1370.8899              2168.6369              3878.5026
 Red. masses --      1.1921                11.2676                 1.0755
 Frc consts  --      1.3200                31.2215                 9.5321
 IR Inten    --     58.8145                15.6603                 4.0862
  Atom  AN      X      Y      Z        X      Y      Z        X      Y      Z
     1   1     0.80  -0.59   0.01    -0.32   0.27   0.05     0.64   0.75   0.13
     2   7     0.01   0.09   0.01     0.07  -0.08   0.00    -0.05  -0.05  -0.01
     3   6     0.01  -0.04  -0.01     0.61   0.36  -0.04     0.00   0.00   0.00
     4   8    -0.07  -0.01   0.00    -0.50  -0.22   0.03     0.00   0.00   0.00

 -------------------
 - Thermochemistry -
 -------------------
 Temperature   298.150 Kelvin.  Pressure   1.00000 Atm.
 Atom     1 has atomic number  1 and mass   1.00783
 Atom     2 has atomic number  7 and mass  14.00307
 Atom     3 has atomic number  6 and mass  12.00000
 Atom     4 has atomic number  8 and mass  15.99491
 Molecular mass:    43.00581 amu.
 Principal axes and moments of inertia in atomic units:
                           1         2         3
     Eigenvalues --     9.16402 160.98440 169.88602
           X            0.99967   0.02506   0.00619
           Y           -0.02525   0.99914   0.03283
           Z           -0.00536  -0.03298   0.99944
 This molecule is an asymmetric top.
 Rotational symmetry number  1.
 Rotational temperatures (Kelvin)      9.45152     0.53803     0.50984
 Rotational constants (GHZ):         196.93773    11.21066    10.62325
 Zero-point vibrational energy      53512.9 (Joules/Mol)
                                   12.78990 (Kcal/Mol)
 Warning -- explicit consideration of   2 degrees of freedom as
           vibrations may cause significant error
 Vibrational temperatures:    115.75   612.58  1471.04  1972.40  3120.18
          (Kelvin)           5580.30
 
 Zero-point correction=                           0.020382 (Hartree/Particle)
 Thermal correction to Energy=                    0.024315
 Thermal correction to Enthalpy=                  0.025259
 Thermal correction to Gibbs Free Energy=        -0.005339
 Sum of electronic and zero-point Energies=           -165.424524
 Sum of electronic and thermal Energies=              -165.420591
 Sum of electronic and thermal Enthalpies=            -165.419647
 Sum of electronic and thermal Free Energies=         -165.450245
 
                     E (Thermal)             CV                S
                      KCal/Mol        Cal/Mol-Kelvin    Cal/Mol-Kelvin
 Total                   15.258              9.815             64.400
 Electronic               0.000              0.000              2.183
 Translational            0.889              2.981             37.203
 Rotational               0.889              2.981             20.155
 Vibrational             13.480              3.853              4.859
 Vibration     1          0.600              1.962              3.880
 Vibration     2          0.788              1.414              0.873
                       Q            Log10(Q)             Ln(Q)
 Total Bot       0.285726D+03          2.455950          5.655034
 Total V=0       0.677659D+12         11.831011         27.241910
 Vib (Bot)       0.151609D-08         -8.819275        -20.307131
 Vib (Bot)    1  0.255975D+01          0.408197          0.939909
 Vib (Bot)    2  0.410588D+00         -0.386593         -0.890164
 Vib (V=0)       0.359572D+01          0.555786          1.279745
 Vib (V=0)    1  0.310812D+01          0.492498          1.134019
 Vib (V=0)    2  0.114698D+01          0.059556          0.137132
 Electronic      0.300000D+01          0.477121          1.098612
 Translational   0.110852D+08          7.044745         16.221124
 Rotational      0.566708D+04          3.753359          8.642429
 Write normal modes, IRwNMS=   765 IRotNM=-1 NVibU=     6.
 
                                                                  T1
                                                             IR Spectrum
 
     3                                                       2                          1          1                                 
     8                                                       1                          3          0                   4             
     7                                                       6                          7          2                   2          8  
     9                                                       9                          1          2                   6          0  
 
     X                                                       X                          X          X                   X          X  
                                                             X                          X                              X          X  
                                                             X                          X                                         X  
                                                             X                          X                                         X  
                                                             X                          X                                         X  
                                                                                        X                                         X  
                                                                                        X                                         X  
                                                                                        X                                         X  
                                                                                        X                                         X  
                                                                                        X                                         X  
                                                                                        X                                         X  
                                                                                        X                                         X  
                                                                                        X                                         X  
                                                                                        X                                         X  
                                                                                        X                                         X  
                                                                                        X                                         X  
                                                                                        X                                         X  
                                                                                        X                                         X  
                                                                                        X                                         X  
                                                                                                                                  X  
 
 Forces in standard orientation:
 -------------------------------------------------------------------
 Center     Atomic                   Forces (Hartrees/Bohr)
 Number     Number              X              Y              Z
 -------------------------------------------------------------------
      1        1          -0.000492288   -0.004695327    0.001357811
      2        7          -0.040732724    0.043177886   -0.002699951
      3        6          -0.102715679   -0.121123131    0.008726434
      4        8           0.143940692    0.082640573   -0.007384294
 -------------------------------------------------------------------
 Cartesian Forces:  Max     0.143940692 RMS     0.068590145
 ***** Axes restored to original set *****
 Rotating derivatives, DoTrsp=F IDiff=-2 LEDeriv=    628 LFDPrp=       0 LDFDPr=       0.
 -------------------------------------------------------------------
 Center     Atomic                   Forces (Hartrees/Bohr)
 Number     Number              X              Y              Z
 -------------------------------------------------------------------
      1        1           0.002561211    0.001918744   -0.003727025
      2        7          -0.058796913   -0.004765484    0.007140556
      3        6          -0.003193183    0.029763868   -0.156209443
      4        8           0.059428885   -0.026917128    0.152795912
 -------------------------------------------------------------------
 Cartesian Forces:  Max     0.156209443 RMS     0.068590145
 From PutF, contents of force:
   1    0.3727024835D-02
   2    0.5309079074D-01
   3    0.1647984910D+00
   4   -0.5084327659D-02
   5   -0.4545678488D-01
   6   -0.3659960486D-02
 -----------------------------------------------------------------------------------------------
                       Internal Coordinate Forces (Hartree/Bohr or radian)
  Cent   Atom   N1       Length/X         N2         Alpha/Y        N3         Beta/Z          J
 -----------------------------------------------------------------------------------------------
      1  H 
      2  N        1   0.003727(     1)
      3  C        2   0.053091(     2)      1  -0.005084(     4)
      4  O        3   0.164798(     3)      2  -0.045457(     5)      1  -0.003660(     6)     0
 -----------------------------------------------------------------------------------------------
 Internal  Forces:  Max     0.164798491 RMS     0.073139855
 Force constants in Cartesian coordinates: 
                1             2             3             4             5 
      1  0.633821D-01
      2  0.754843D-03  0.215911D-02
      3  0.118751D-01 -0.103201D-02  0.535294D+00
      4 -0.440466D-01 -0.520657D-02 -0.310297D-01  0.338148D+00
      5 -0.307011D-02  0.659652D-03  0.503133D-03  0.568313D-02 -0.271972D-01
      6  0.526758D-01  0.217644D-02 -0.528306D+00  0.747447D-01 -0.123463D-01
      7 -0.884373D-02  0.865544D-02  0.208911D-01 -0.184654D+00 -0.144368D-01
      8  0.271700D-02 -0.875132D-02  0.126774D-02 -0.335296D-01  0.393531D-01
      9 -0.661464D-01  0.196470D-02 -0.952671D-02  0.166935D+00  0.156433D-01
     10 -0.104918D-01 -0.420371D-02 -0.173649D-02 -0.109448D+00  0.118238D-01
     11 -0.401728D-03  0.593255D-02 -0.738862D-03  0.330530D-01 -0.128156D-01
     12  0.159548D-02 -0.310914D-02  0.253895D-02 -0.210650D+00 -0.380006D-02
                6             7             8             9            10 
      6  0.629453D+00
      7 -0.394631D-01  0.354233D+00
      8  0.617632D-02 -0.624118D-01 -0.788808D-01
      9 -0.560183D-01  0.355307D+00 -0.213621D+00  0.100566D+01
     10 -0.879575D-01 -0.160735D+00  0.932244D-01 -0.456096D+00  0.280675D+00
     11  0.399357D-02  0.681932D-01  0.482790D-01  0.196013D+00 -0.100844D+00
     12 -0.451283D-01 -0.336735D+00  0.206177D+00 -0.940117D+00  0.545790D+00
               11            12 
     11 -0.413959D-01
     12 -0.199268D+00  0.982706D+00
 FCInt: Cartesian first derivatives: 
                 1             2             3             4 
      1   0.256121D-02 -0.587969D-01 -0.319318D-02  0.594289D-01
      2   0.191874D-02 -0.476548D-02  0.297639D-01 -0.269171D-01
      3  -0.372702D-02  0.714056D-02 -0.156209D+00  0.152796D+00
 FCInt: Cartesian force constants: 
                1             2             3             4             5 
      1  0.633821D-01
      2  0.754843D-03  0.215911D-02
      3  0.118751D-01 -0.103201D-02  0.535294D+00
      4 -0.440466D-01 -0.520657D-02 -0.310297D-01  0.338148D+00
      5 -0.307011D-02  0.659652D-03  0.503133D-03  0.568313D-02 -0.271972D-01
      6  0.526758D-01  0.217644D-02 -0.528306D+00  0.747447D-01 -0.123463D-01
      7 -0.884373D-02  0.865544D-02  0.208911D-01 -0.184654D+00 -0.144368D-01
      8  0.271700D-02 -0.875132D-02  0.126774D-02 -0.335296D-01  0.393531D-01
      9 -0.661464D-01  0.196470D-02 -0.952671D-02  0.166935D+00  0.156433D-01
     10 -0.104918D-01 -0.420371D-02 -0.173649D-02 -0.109448D+00  0.118238D-01
     11 -0.401728D-03  0.593255D-02 -0.738862D-03  0.330530D-01 -0.128156D-01
     12  0.159548D-02 -0.310914D-02  0.253895D-02 -0.210650D+00 -0.380006D-02
                6             7             8             9            10 
      6  0.629453D+00
      7 -0.394631D-01  0.354233D+00
      8  0.617632D-02 -0.624118D-01 -0.788808D-01
      9 -0.560183D-01  0.355307D+00 -0.213621D+00  0.100566D+01
     10 -0.879575D-01 -0.160735D+00  0.932244D-01 -0.456096D+00  0.280675D+00
     11  0.399357D-02  0.681932D-01  0.482790D-01  0.196013D+00 -0.100844D+00
     12 -0.451283D-01 -0.336735D+00  0.206177D+00 -0.940117D+00  0.545790D+00
               11            12 
     11 -0.413959D-01
     12 -0.199268D+00  0.982706D+00
 Internal force constants: 
                1             2             3             4             5 
      1  0.535294D+00
      2 -0.164702D-01  0.355312D+00
      3 -0.149541D-02  0.255707D+00  0.131726D+01
      4  0.261348D-01  0.723699D-01  0.698470D-02  0.257170D+00
      5  0.604641D-02  0.478520D-01  0.162289D-01  0.430884D-01  0.279502D+00
      6 -0.124823D-03 -0.755492D-02  0.107207D-01  0.180339D-02  0.573043D-02
                6 
      6  0.160399D-01
 Frcnst in PutFF: 
                1             2             3             4             5 
      1  0.535294D+00
      2 -0.164702D-01  0.355312D+00
      3 -0.149541D-02  0.255707D+00  0.131726D+01
      4  0.261348D-01  0.723699D-01  0.698470D-02  0.257170D+00
      5  0.604641D-02  0.478520D-01  0.162289D-01  0.430884D-01  0.279502D+00
      6 -0.124823D-03 -0.755492D-02  0.107207D-01  0.180339D-02  0.573043D-02
                6 
      6  0.160399D-01
 Force constants in internal coordinates: 
                1             2             3             4             5 
      1  0.535294D+00
      2 -0.164702D-01  0.355312D+00
      3 -0.149541D-02  0.255707D+00  0.131726D+01
      4  0.261348D-01  0.723699D-01  0.698470D-02  0.257170D+00
      5  0.604641D-02  0.478520D-01  0.162289D-01  0.430884D-01  0.279502D+00
      6 -0.124823D-03 -0.755492D-02  0.107207D-01  0.180339D-02  0.573043D-02
                6 
      6  0.160399D-01
 Final forces over variables, Energy=-1.65444906D+02:
  3.72702483D-03 5.30907907D-02 1.64798491D-01-5.08432766D-03
 -4.54567849D-02-3.65996049D-03
 Leave Link  716 at Fri Apr 15 18:54:02 2022, MaxMem=   131072000 cpu:               0.0 elap:               0.0
 (Enter C:\G16W\l103.exe)

 GradGradGradGradGradGradGradGradGradGradGradGradGradGradGradGradGradGrad
 Berny optimization.
 Search for a local minimum.
 Step number   1 out of a maximum of    2
 All quantities printed in internal units (Hartrees-Bohrs-Radians)
 Second derivative matrix not updated -- analytic derivatives used.
 The second derivative matrix:
                          B1        B2        B3        A1        A2
           B1           0.53529
           B2          -0.01647   0.35531
           B3          -0.00150   0.25571   1.31726
           A1           0.02613   0.07237   0.00698   0.25717
           A2           0.00605   0.04785   0.01623   0.04309   0.27950
           D1          -0.00012  -0.00755   0.01072   0.00180   0.00573
                          D1
           D1           0.01604
 ITU=  0
     Eigenvalues ---    0.01538   0.19995   0.24484   0.37971   0.53835
     Eigenvalues ---    1.38235
 Quadratic step=3.005D-01 exceeds max=3.000D-01 adjusted using Lamda= 0.000D+00.
 Angle between NR and scaled steps=   0.00 degrees.
 Angle between quadratic step and forces=  53.25 degrees.
 Linear search not attempted -- first point.
 Variable       Old X    -DE/DX   Delta X   Delta X   Delta X     New X
                                 (Linear)    (Quad)   (Total)
    B1        1.98513   0.00373   0.00000   0.01309   0.01309   1.99822
    B2        2.66303   0.05309   0.00000   0.09430   0.09430   2.75733
    B3        2.16985   0.16480   0.00000   0.11068   0.11068   2.28053
    A1        1.85141  -0.00508   0.00000  -0.01938  -0.01938   1.83203
    A2        2.33882  -0.04546   0.00000  -0.17857  -0.17857   2.16025
    D1        3.36283  -0.00366   0.00000  -0.19166  -0.19166   3.17117
         Item               Value     Threshold  Converged?
 Maximum Force            0.164798     0.000450     NO 
 RMS     Force            0.073140     0.000300     NO 
 Maximum Displacement     0.191663     0.001800     NO 
 RMS     Displacement     0.122686     0.001200     NO 
 Predicted change in Energy=-1.610609D-02
                       ----------------------------
                       ! Non-Optimized Parameters !
                       ! (Angstroms and Degrees)  !
 ----------------------                            ----------------------
 !      Name          Value   Derivative information (Atomic Units)     !
 ------------------------------------------------------------------------
 !       B1          1.0574   -DE/DX =    0.0037                        !
 !       B2          1.4591   -DE/DX =    0.0531                        !
 !       B3          1.2068   -DE/DX =    0.1648                        !
 !       A1        104.9674   -DE/DX =   -0.0051                        !
 !       A2        123.7733   -DE/DX =   -0.0455                        !
 !       D1        181.6945   -DE/DX =   -0.0037                        !
 ------------------------------------------------------------------------
 GradGradGradGradGradGradGradGradGradGradGradGradGradGradGradGradGradGrad

 Leave Link  103 at Fri Apr 15 18:54:02 2022, MaxMem=   131072000 cpu:               0.0 elap:               0.0
 (Enter C:\G16W\l9999.exe)

 ----------------------------------------------------------------------

 Electric dipole moment (input orientation):
 (Debye = 10**-18 statcoulomb cm , SI units = C m)
                  (au)            (Debye)         (10**-30 SI)
   Tot        0.690055D+00      0.175394D+01      0.585053D+01
   x         -0.657732D-01     -0.167179D+00     -0.557648D+00
   y          0.156806D-01      0.398562D-01      0.132946D+00
   z         -0.686734D+00     -0.174550D+01     -0.582238D+01

 Dipole polarizability, Alpha (input orientation).
 (esu units = cm**3 , SI units = C**2 m**2 J**-1)
 Alpha(0;0):
               (au)            (10**-24 esu)      (10**-40 SI)
   iso        0.982828D+01      0.145640D+01      0.162046D+01
   aniso      0.119580D+02      0.177200D+01      0.197162D+01
   xx         0.102020D+02      0.151178D+01      0.168208D+01
   yx        -0.591857D+00     -0.877042D-01     -0.975841D-01
   yy         0.631248D+01      0.935412D+00      0.104079D+01
   zx         0.594535D+01      0.881010D+00      0.980256D+00
   zy        -0.883679D+00     -0.130948D+00     -0.145699D+00
   zz         0.129704D+02      0.192201D+01      0.213852D+01

 First dipole hyperpolarizability, Beta (input orientation).
 ||, _|_  parallel and perpendicular components, (z) with respect to z axis,
 vector components x,y,z.  Values do not include the 1/n! factor of 1/2.
 (esu units = statvolt**-1 cm**4 , SI units = C**3 m**3 J**-2)
 Beta(0;0,0):
               (au)            (10**-30 esu)      (10**-50 SI)
   || (z)    -0.213014D+02     -0.184027D+00     -0.682999D-01
   _|_(z)    -0.710046D+01     -0.613424D-01     -0.227666D-01
   x          0.107997D+03      0.933008D+00      0.346277D+00
   y          0.121570D+02      0.105027D+00      0.389797D-01
   z         -0.106507D+03     -0.920136D+00     -0.341500D+00
   ||         0.304334D+02      0.262921D+00      0.975805D-01
   xxx        0.303634D+02      0.262316D+00      0.973560D-01
   xxy        0.802308D-01      0.693132D-03      0.257249D-03
   yxy        0.813819D+01      0.703076D-01      0.260940D-01
   yyy        0.174382D+01      0.150653D-01      0.559132D-02
   xxz        0.100695D+01      0.869926D-02      0.322864D-02
   yxz       -0.149008D+01     -0.128731D-01     -0.477774D-02
   yyz       -0.146078D+02     -0.126200D+00     -0.468380D-01
   zxz       -0.250263D+01     -0.216208D-01     -0.802435D-02
   zyz        0.222827D+01      0.192505D-01      0.714465D-02
   zzz       -0.219014D+02     -0.189211D+00     -0.702239D-01

 ----------------------------------------------------------------------

 Dipole orientation:
     1          0.00000000          0.00000000          0.00000000
     7         -0.18921399         -0.04510947         -1.97557400
     6          2.28771070         -0.06464617         -2.95343052
     8          3.13018608          0.23389902         -4.93063699

 Electric dipole moment (dipole orientation):
 (Debye = 10**-18 statcoulomb cm , SI units = C m)
                  (au)            (Debye)         (10**-30 SI)
   Tot        0.690055D+00      0.175394D+01      0.585053D+01
   x          0.000000D+00      0.000000D+00      0.000000D+00
   y          0.000000D+00      0.000000D+00      0.000000D+00
   z          0.690055D+00      0.175394D+01      0.585053D+01

 Dipole polarizability, Alpha (dipole orientation).
 (esu units = cm**3 , SI units = C**2 m**2 J**-1)
 Alpha(0;0):
               (au)            (10**-24 esu)      (10**-40 SI)
   iso        0.982828D+01      0.145640D+01      0.162046D+01
   aniso      0.119580D+02      0.177200D+01      0.197162D+01
   xx         0.909783D+01      0.134816D+01      0.150003D+01
   yx         0.381173D+00      0.564840D-01      0.628469D-01
   yy         0.627478D+01      0.929826D+00      0.103457D+01
   zx        -0.558374D+01     -0.827425D+00     -0.920634D+00
   zy        -0.764860D+00     -0.113341D+00     -0.126108D+00
   zz         0.141122D+02      0.209122D+01      0.232679D+01

 First dipole hyperpolarizability, Beta (dipole orientation).
 ||, _|_  parallel and perpendicular components, (z) with respect to z axis,
 vector components x,y,z.  Values do not include the 1/n! factor of 1/2.
 (esu units = statvolt**-1 cm**4 , SI units = C**3 m**3 J**-2)
 Beta(0;0,0):
               (au)            (10**-30 esu)      (10**-50 SI)
   || (z)     0.191954D+02      0.165833D+00      0.615472D-01
   _|_(z)     0.639845D+01      0.552776D-01      0.205157D-01
   x          0.117670D+03      0.101658D+01      0.377293D+00
   y         -0.985083D+01     -0.851035D-01     -0.315853D-01
   z          0.959768D+02      0.829165D+00      0.307736D+00
   ||         0.304334D+02      0.262921D+00      0.975805D-01
   xxx        0.296175D+02      0.255872D+00      0.949645D-01
   xxy       -0.464309D+00     -0.401127D-02     -0.148874D-02
   yxy        0.941309D+01      0.813218D-01      0.301818D-01
   yyy       -0.776611D+00     -0.670932D-02     -0.249010D-02
   xxz       -0.410224D+01     -0.354402D-01     -0.131533D-01
   yxz       -0.189765D+01     -0.163942D-01     -0.608455D-02
   yyz        0.137000D+02      0.118358D+00      0.439273D-01
   zxz        0.192738D+00      0.166510D-02      0.617987D-03
   zyz       -0.204269D+01     -0.176473D-01     -0.654961D-02
   zzz        0.223945D+02      0.193471D+00      0.718047D-01

 ----------------------------------------------------------------------

 Test job not archived.
 1|1|UNPC-DESKTOP-RNC6JTU|Freq|UHF|STO-3G|C1H1N1O1(3)|BNULK|15-Apr-2022
 |1||#p sto-3g scf=maxcycle=999 freq=noraman IOP(7/33=1) hf||T1||0,3|H|
 N,1,B1|C,2,B2,1,A1|O,3,B3,2,A2,1,D1,0||B1=1.050484|B2=1.409216|B3=1.14
 8234|A1=106.077759|A2=134.004733|D1=192.675975||Version=EM64W-G16RevA.
 03|State=3-A|HF=-165.4449057|S2=2.097511|S2-1=0.|S2A=2.002009|RMSD=3.3
 90e-009|RMSF=6.859e-002|ZeroPoint=0.020382|Thermal=0.0243149|Dipole=-0
 .0657732,0.0156806,-0.6867343|DipoleDeriv=0.2313079,-0.0003736,0.12542
 95,0.0071031,0.3000631,0.0000531,0.056432,-0.0013354,-0.0283651,-0.103
 9713,-0.0237197,-0.0923204,-0.0253288,-0.2942754,0.0134366,0.0258389,0
 .0017649,0.0802523,-0.029508,0.0568083,-0.1802243,0.0462876,0.0329348,
 0.0019625,-0.2382851,0.0403922,-0.1203088,-0.0978286,-0.032715,0.14711
 51,-0.0280619,-0.0387225,-0.0154522,0.1560142,-0.0408217,0.0684217|Pol
 ar=10.2019935,-0.5918573,6.3124753,5.9453504,-0.8836787,12.9703601|Hyp
 erPolar=30.3633801,0.0802308,8.1381894,1.7438217,1.0069491,-1.4900815,
 -14.6078211,-2.5026332,2.2282722,-21.9014175|Quadrupole=-1.9164791,0.7
 988985,1.1175806,0.0542117,0.3584035,0.206275|PG=C01 [X(C1H1N1O1)]|NIm
 ag=0||0.06338209,0.00075484,0.00215911,0.01187512,-0.00103201,0.535294
 01,-0.04404659,-0.00520657,-0.03102973,0.33814818,-0.00307011,0.000659
 65,0.00050313,0.00568313,-0.02719717,0.05267583,0.00217644,-0.52830624
 ,0.07474468,-0.01234633,0.62945285,-0.00884373,0.00865544,0.02089110,-
 0.18465385,-0.01443684,-0.03946306,0.35423290,0.00271700,-0.00875132,0
 .00126774,-0.03352958,0.03935314,0.00617632,-0.06241179,-0.07888084,-0
 .06614642,0.00196470,-0.00952671,0.16693487,0.01564326,-0.05601831,0.3
 5530745,-0.21362139,1.00566211,-0.01049177,-0.00420371,-0.00173649,-0.
 10944774,0.01182382,-0.08795745,-0.16073532,0.09322437,-0.45609590,0.2
 8067484,-0.00040173,0.00593255,-0.00073886,0.03305301,-0.01281562,0.00
 399357,0.06819320,0.04827902,0.19601343,-0.10084448,-0.04139595,0.0015
 9548,-0.00310914,0.00253895,-0.21064982,-0.00380006,-0.04512829,-0.336
 73550,0.20617733,-0.94011709,0.54578984,-0.19926814,0.98270644||-0.002
 56121,-0.00191874,0.00372702,0.05879691,0.00476548,-0.00714056,0.00319
 318,-0.02976387,0.15620944,-0.05942888,0.02691713,-0.15279591|||@


 I WANT TO KNOW HOW GOD CREATED THE WORLD.  I AM NOT INTERESTED IN
 THIS OR THAT PHENOMENON, IN THE SPECTRUM OF THIS OR THAT ELEMENT.
 I WANT TO KNOW HIS THOUGHTS, THE REST ARE DETAILS.
     -- ALBERT EINSTEIN
 Job cpu time:       0 days  0 hours  0 minutes  2.0 seconds.
 Elapsed time:       0 days  0 hours  0 minutes  1.1 seconds.
 File lengths (MBytes):  RWF=      6 Int=      0 D2E=      0 Chk=      1 Scr=      1
 Normal termination of Gaussian 16 at Fri Apr 15 18:54:02 2022.
