 Entering Gaussian System, Link 0=g16
 Input=State2_5.gjf
 Output=State2_5.out
 Initial command:
 C:\G16W\l1.exe ".\Gau-11896.inp" "State2_5.out" /scrdir=".\"
 Entering Link 1 = C:\G16W\l1.exe PID=     17748.
  
 Copyright (c) 1988,1990,1992,1993,1995,1998,2003,2009,2016,
            Gaussian, Inc.  All Rights Reserved.
  
 This is part of the Gaussian(R) 16 program.  It is based on
 the Gaussian(R) 09 system (copyright 2009, Gaussian, Inc.),
 the Gaussian(R) 03 system (copyright 2003, Gaussian, Inc.),
 the Gaussian(R) 98 system (copyright 1998, Gaussian, Inc.),
 the Gaussian(R) 94 system (copyright 1995, Gaussian, Inc.),
 the Gaussian 92(TM) system (copyright 1992, Gaussian, Inc.),
 the Gaussian 90(TM) system (copyright 1990, Gaussian, Inc.),
 the Gaussian 88(TM) system (copyright 1988, Gaussian, Inc.),
 the Gaussian 86(TM) system (copyright 1986, Carnegie Mellon
 University), and the Gaussian 82(TM) system (copyright 1983,
 Carnegie Mellon University). Gaussian is a federally registered
 trademark of Gaussian, Inc.
  
 This software contains proprietary and confidential information,
 including trade secrets, belonging to Gaussian, Inc.
  
 This software is provided under written license and may be
 used, copied, transmitted, or stored only in accord with that
 written license.
  
 The following legend is applicable only to US Government
 contracts under FAR:
  
                    RESTRICTED RIGHTS LEGEND
  
 Use, reproduction and disclosure by the US Government is
 subject to restrictions as set forth in subparagraphs (a)
 and (c) of the Commercial Computer Software - Restricted
 Rights clause in FAR 52.227-19.
  
 Gaussian, Inc.
 340 Quinnipiac St., Bldg. 40, Wallingford CT 06492
  
  
 ---------------------------------------------------------------
 Warning -- This program may not be used in any manner that
 competes with the business of Gaussian, Inc. or will provide
 assistance to any competitor of Gaussian, Inc.  The licensee
 of this program is prohibited from giving any competitor of
 Gaussian, Inc. access to this program.  By using this program,
 the user acknowledges that Gaussian, Inc. is engaged in the
 business of creating and licensing software in the field of
 computational chemistry and represents and warrants to the
 licensee that it is not a competitor of Gaussian, Inc. and that
 it will not use this program in any manner prohibited above.
 ---------------------------------------------------------------
  

 Cite this work as:
 Gaussian 16, Revision A.03,
 M. J. Frisch, G. W. Trucks, H. B. Schlegel, G. E. Scuseria, 
 M. A. Robb, J. R. Cheeseman, G. Scalmani, V. Barone, 
 G. A. Petersson, H. Nakatsuji, X. Li, M. Caricato, A. V. Marenich, 
 J. Bloino, B. G. Janesko, R. Gomperts, B. Mennucci, H. P. Hratchian, 
 J. V. Ortiz, A. F. Izmaylov, J. L. Sonnenberg, D. Williams-Young, 
 F. Ding, F. Lipparini, F. Egidi, J. Goings, B. Peng, A. Petrone, 
 T. Henderson, D. Ranasinghe, V. G. Zakrzewski, J. Gao, N. Rega, 
 G. Zheng, W. Liang, M. Hada, M. Ehara, K. Toyota, R. Fukuda, 
 J. Hasegawa, M. Ishida, T. Nakajima, Y. Honda, O. Kitao, H. Nakai, 
 T. Vreven, K. Throssell, J. A. Montgomery, Jr., J. E. Peralta, 
 F. Ogliaro, M. J. Bearpark, J. J. Heyd, E. N. Brothers, K. N. Kudin, 
 V. N. Staroverov, T. A. Keith, R. Kobayashi, J. Normand, 
 K. Raghavachari, A. P. Rendell, J. C. Burant, S. S. Iyengar, 
 J. Tomasi, M. Cossi, J. M. Millam, M. Klene, C. Adamo, R. Cammi, 
 J. W. Ochterski, R. L. Martin, K. Morokuma, O. Farkas, 
 J. B. Foresman, and D. J. Fox, Gaussian, Inc., Wallingford CT, 2016.
 
 ******************************************
 Gaussian 16:  EM64W-G16RevA.03 17-Dec-2016
                15-Apr-2022 
 ******************************************
 %mem=1000mb
 %chk=LiuKun2.chk
 ------------------------------------------------------
 #p sto-3g scf=maxcycle=999 freq=noraman IOP(7/33=1) hf
 ------------------------------------------------------
 1/10=4,30=1,38=1/1,3;
 2/12=2,17=6,18=5,40=1/2;
 3/6=3,11=9,25=1,30=1,71=2,140=1/1,2,3;
 4//1;
 5/5=2,7=999,38=5,98=1/2;
 8/6=4,10=90,11=11/1;
 11/6=1,8=1,9=11,15=111,16=1/1,2,10;
 10/6=1/2;
 6/7=2,8=2,9=2,10=2,28=1/1;
 7/8=1,10=1,25=1,33=1/1,2,3,16;
 1/10=4,30=1/3;
 99//99;
 Leave Link    1 at Fri Apr 15 18:54:12 2022, MaxMem=   131072000 cpu:               0.0 elap:               0.0
 (Enter C:\G16W\l101.exe)
 --
 T1
 --
 Symbolic Z-matrix:
 Charge =  0 Multiplicity = 3
 H
 N                    1    B1
 C                    2    B2       1    A1
 O                    3    B3       2    A2       1    D1       0
       Variables:
  B1                    1.05085                  
  B2                    1.36263                  
  B3                    1.23456                  
  A1                  107.69446                  
  A2                  134.13625                  
  D1                  179.99618                  
 
 ITRead=  0  0  0  0
 MicOpt= -1 -1 -1 -1
 NAtoms=      4 NQM=        4 NQMF=       0 NMMI=      0 NMMIF=      0
                NMic=       0 NMicF=      0.
                    Isotopes and Nuclear Properties:
 (Nuclear quadrupole moments (NQMom) in fm**2, nuclear magnetic moments (NMagM)
  in nuclear magnetons)

  Atom         1           2           3           4
 IAtWgt=           1          14          12          16
 AtmWgt=   1.0078250  14.0030740  12.0000000  15.9949146
 NucSpn=           1           2           0           0
 AtZEff=   0.0000000   0.0000000   0.0000000   0.0000000
 NQMom=    0.0000000   2.0440000   0.0000000   0.0000000
 NMagM=    2.7928460   0.4037610   0.0000000   0.0000000
 AtZNuc=   1.0000000   7.0000000   6.0000000   8.0000000
 Leave Link  101 at Fri Apr 15 18:54:12 2022, MaxMem=   131072000 cpu:               0.0 elap:               0.1
 (Enter C:\G16W\l103.exe)

 GradGradGradGradGradGradGradGradGradGradGradGradGradGradGradGradGradGrad
 Berny optimization.
 Initialization pass.
                       ----------------------------
                       !    Initial Parameters    !
                       ! (Angstroms and Degrees)  !
 ----------------------                            ----------------------
 !      Name          Value   Derivative information (Atomic Units)     !
 ------------------------------------------------------------------------
 !       B1          1.0509   calculate D2E/DX2 analytically            !
 !       B2          1.3626   calculate D2E/DX2 analytically            !
 !       B3          1.2346   calculate D2E/DX2 analytically            !
 !       A1        107.6945   calculate D2E/DX2 analytically            !
 !       A2        134.1362   calculate D2E/DX2 analytically            !
 !       D1        179.9962   calculate D2E/DX2 analytically            !
 ------------------------------------------------------------------------
 Trust Radius=3.00D-01 FncErr=1.00D-07 GrdErr=1.00D-07 EigMax=2.50D+02 EigMin=1.00D-04
 Number of steps in this run=      2 maximum allowed number of steps=      2.
 GradGradGradGradGradGradGradGradGradGradGradGradGradGradGradGradGradGrad

 Leave Link  103 at Fri Apr 15 18:54:12 2022, MaxMem=   131072000 cpu:               0.0 elap:               0.0
 (Enter C:\G16W\l202.exe)
                          Input orientation:                          
 ---------------------------------------------------------------------
 Center     Atomic      Atomic             Coordinates (Angstroms)
 Number     Number       Type             X           Y           Z
 ---------------------------------------------------------------------
      1          1           0        0.000000    0.000000    0.000000
      2          7           0        0.000000    0.000000    1.050854
      3          6           0        1.298162    0.000000    1.465012
      4          8           0        1.847897    0.000059    2.570420
 ---------------------------------------------------------------------
                    Distance matrix (angstroms):
                    1          2          3          4
     1  H    0.000000
     2  N    1.050854   0.000000
     3  C    1.957418   1.362627   0.000000
     4  O    3.165720   2.392448   1.234559   0.000000
 Stoichiometry    CHNO(3)
 Framework group  C1[X(CHNO)]
 Deg. of freedom     6
 Full point group                 C1      NOp   1
 Largest Abelian subgroup         C1      NOp   1
 Largest concise Abelian subgroup C1      NOp   1
                         Standard orientation:                         
 ---------------------------------------------------------------------
 Center     Atomic      Atomic             Coordinates (Angstroms)
 Number     Number       Type             X           Y           Z
 ---------------------------------------------------------------------
      1          1           0       -1.883699    0.537238    0.000041
      2          7           0       -1.173823   -0.237597   -0.000003
      3          6           0        0.063136    0.333968   -0.000011
      4          8           0        1.215206   -0.109734    0.000006
 ---------------------------------------------------------------------
 Rotational constants (GHZ):         195.7562001          10.8725681          10.3004661
 Leave Link  202 at Fri Apr 15 18:54:13 2022, MaxMem=   131072000 cpu:               1.0 elap:               0.0
 (Enter C:\G16W\l301.exe)
 Standard basis: STO-3G (5D, 7F)
 Ernie: Thresh=  0.10000D-02 Tol=  0.10000D-05 Strict=F.
 There are    16 symmetry adapted cartesian basis functions of A   symmetry.
 There are    16 symmetry adapted basis functions of A   symmetry.
    16 basis functions,    48 primitive gaussians,    16 cartesian basis functions
    12 alpha electrons       10 beta electrons
       nuclear repulsion energy        55.7560519227 Hartrees.
 IExCor=    0 DFT=F Ex=HF Corr=None ExCW=0 ScaHFX=  1.000000
 ScaDFX=  1.000000  1.000000  1.000000  1.000000 ScalE2=  1.000000  1.000000
 IRadAn=      5 IRanWt=     -1 IRanGd=            0 ICorTp=0 IEmpDi=  4
 NAtoms=    4 NActive=    4 NUniq=    4 SFac= 1.00D+00 NAtFMM=   60 NAOKFM=F Big=F
 Integral buffers will be    131072 words long.
 Raffenetti 2 integral format.
 Two-electron integral symmetry is turned on.
 Leave Link  301 at Fri Apr 15 18:54:13 2022, MaxMem=   131072000 cpu:               0.0 elap:               0.0
 (Enter C:\G16W\l302.exe)
 NPDir=0 NMtPBC=     1 NCelOv=     1 NCel=       1 NClECP=     1 NCelD=      1
         NCelK=      1 NCelE2=     1 NClLst=     1 CellRange=     0.0.
 One-electron integrals computed using PRISM.
 One-electron integral symmetry used in STVInt
 NBasis=    16 RedAO= T EigKep=  2.65D-01  NBF=    16
 NBsUse=    16 1.00D-06 EigRej= -1.00D+00 NBFU=    16
 Leave Link  302 at Fri Apr 15 18:54:13 2022, MaxMem=   131072000 cpu:               0.0 elap:               0.1
 (Enter C:\G16W\l303.exe)
 DipDrv:  MaxL=1.
 Leave Link  303 at Fri Apr 15 18:54:13 2022, MaxMem=   131072000 cpu:               0.0 elap:               0.0
 (Enter C:\G16W\l401.exe)
 ExpMin= 1.69D-01 ExpMax= 1.31D+02 ExpMxC= 1.31D+02 IAcc=3 IRadAn=         5 AccDes= 0.00D+00
 Harris functional with IExCor=  205 and IRadAn=       5 diagonalized for initial guess.
 HarFok:  IExCor=  205 AccDes= 0.00D+00 IRadAn=         5 IDoV= 1 UseB2=F ITyADJ=14
 ICtDFT=  3500011 ScaDFX=  1.000000  1.000000  1.000000  1.000000
 FoFCou: FMM=F IPFlag=           0 FMFlag=      100000 FMFlg1=           0
         NFxFlg=           0 DoJE=T BraDBF=F KetDBF=T FulRan=T
         wScrn=  0.000000 ICntrl=       500 IOpCl=  0 I1Cent=   200000004 NGrid=           0
         NMat0=    1 NMatS0=      1 NMatT0=    0 NMatD0=    1 NMtDS0=    0 NMtDT0=    0
 Petite list used in FoFCou.
 Harris En= -165.374104731820    
 JPrj=0 DoOrth=F DoCkMO=F.
 Initial guess <Sx>= 0.0000 <Sy>= 0.0000 <Sz>= 1.0000 <S**2>= 2.0000 S= 1.0000
 Leave Link  401 at Fri Apr 15 18:54:13 2022, MaxMem=   131072000 cpu:               0.0 elap:               0.1
 (Enter C:\G16W\l502.exe)
 Keep R1 and R2 ints in memory in canonical form, NReq=823457.
 FoFCou: FMM=F IPFlag=           0 FMFlag=           0 FMFlg1=           0
         NFxFlg=           0 DoJE=F BraDBF=F KetDBF=F FulRan=T
         wScrn=  0.000000 ICntrl=       600 IOpCl=  0 I1Cent=           0 NGrid=           0
         NMat0=    1 NMatS0=    136 NMatT0=    0 NMatD0=    1 NMtDS0=    0 NMtDT0=    0
 Symmetry not used in FoFCou.
 Two-electron integral symmetry not used.
 UHF open shell SCF:
 Using DIIS extrapolation, IDIIS=  1040.
 NGot=   131072000 LenX=   131051941 LenY=   131051059
 Requested convergence on RMS density matrix=1.00D-08 within 999 cycles.
 Requested convergence on MAX density matrix=1.00D-06.
 Requested convergence on             energy=1.00D-06.
 No special actions if energy rises.

 Cycle   1  Pass 1  IDiag  1:
 E= -165.401571081525    
 DIIS: error= 3.19D-02 at cycle   1 NSaved=   1.
 NSaved= 1 IEnMin= 1 EnMin= -165.401571081525     IErMin= 1 ErrMin= 3.19D-02
 ErrMax= 3.19D-02  0.00D+00 EMaxC= 1.00D-01 BMatC= 9.64D-02 BMatP= 9.64D-02
 IDIUse=3 WtCom= 6.81D-01 WtEn= 3.19D-01
 Coeff-Com:  0.100D+01
 Coeff-En:   0.100D+01
 Coeff:      0.100D+01
 Gap=     0.530 Goal=   None    Shift=    0.000
 Gap=     0.491 Goal=   None    Shift=    0.000
 GapD=    0.491 DampG=2.000 DampE=0.500 DampFc=1.0000 IDamp=-1.
 RMSDP=1.19D-02 MaxDP=8.12D-02              OVMax= 0.00D+00

 Cycle   2  Pass 1  IDiag  1:
 E= -165.435943586306     Delta-E=       -0.034372504781 Rises=F Damp=F
 DIIS: error= 2.26D-02 at cycle   2 NSaved=   2.
 NSaved= 2 IEnMin= 2 EnMin= -165.435943586306     IErMin= 2 ErrMin= 2.26D-02
 ErrMax= 2.26D-02  0.00D+00 EMaxC= 1.00D-01 BMatC= 1.22D-02 BMatP= 9.64D-02
 IDIUse=3 WtCom= 7.74D-01 WtEn= 2.26D-01
 Coeff-Com: -0.129D+00 0.113D+01
 Coeff-En:   0.000D+00 0.100D+01
 Coeff:     -0.100D+00 0.110D+01
 Gap=     0.558 Goal=   None    Shift=    0.000
 Gap=     0.533 Goal=   None    Shift=    0.000
 RMSDP=6.44D-03 MaxDP=5.78D-02 DE=-3.44D-02 OVMax= 0.00D+00

 Cycle   3  Pass 1  IDiag  1:
 E= -165.446598931010     Delta-E=       -0.010655344704 Rises=F Damp=F
 DIIS: error= 1.53D-02 at cycle   3 NSaved=   3.
 NSaved= 3 IEnMin= 3 EnMin= -165.446598931010     IErMin= 3 ErrMin= 1.53D-02
 ErrMax= 1.53D-02  0.00D+00 EMaxC= 1.00D-01 BMatC= 4.13D-03 BMatP= 1.22D-02
 IDIUse=3 WtCom= 8.47D-01 WtEn= 1.53D-01
 Coeff-Com: -0.336D-01-0.380D+00 0.141D+01
 Coeff-En:   0.000D+00 0.000D+00 0.100D+01
 Coeff:     -0.285D-01-0.322D+00 0.135D+01
 Gap=     0.572 Goal=   None    Shift=    0.000
 Gap=     0.548 Goal=   None    Shift=    0.000
 RMSDP=5.02D-03 MaxDP=5.98D-02 DE=-1.07D-02 OVMax= 0.00D+00

 Cycle   4  Pass 1  IDiag  1:
 E= -165.451549162448     Delta-E=       -0.004950231438 Rises=F Damp=F
 DIIS: error= 7.88D-03 at cycle   4 NSaved=   4.
 NSaved= 4 IEnMin= 4 EnMin= -165.451549162448     IErMin= 4 ErrMin= 7.88D-03
 ErrMax= 7.88D-03  0.00D+00 EMaxC= 1.00D-01 BMatC= 1.73D-03 BMatP= 4.13D-03
 IDIUse=3 WtCom= 9.21D-01 WtEn= 7.88D-02
 Coeff-Com:  0.266D-01-0.394D+00 0.266D+00 0.110D+01
 Coeff-En:   0.000D+00 0.000D+00 0.000D+00 0.100D+01
 Coeff:      0.245D-01-0.363D+00 0.245D+00 0.109D+01
 Gap=     0.582 Goal=   None    Shift=    0.000
 Gap=     0.567 Goal=   None    Shift=    0.000
 RMSDP=3.59D-03 MaxDP=3.99D-02 DE=-4.95D-03 OVMax= 0.00D+00

 Cycle   5  Pass 1  IDiag  1:
 E= -165.453890183003     Delta-E=       -0.002341020556 Rises=F Damp=F
 DIIS: error= 5.29D-03 at cycle   5 NSaved=   5.
 NSaved= 5 IEnMin= 5 EnMin= -165.453890183003     IErMin= 5 ErrMin= 5.29D-03
 ErrMax= 5.29D-03  0.00D+00 EMaxC= 1.00D-01 BMatC= 7.15D-04 BMatP= 1.73D-03
 IDIUse=3 WtCom= 9.47D-01 WtEn= 5.29D-02
 Coeff-Com: -0.905D-04 0.124D+00-0.216D+00-0.526D+00 0.162D+01
 Coeff-En:   0.000D+00 0.000D+00 0.000D+00 0.000D+00 0.100D+01
 Coeff:     -0.858D-04 0.117D+00-0.205D+00-0.498D+00 0.159D+01
 Gap=     0.586 Goal=   None    Shift=    0.000
 Gap=     0.577 Goal=   None    Shift=    0.000
 RMSDP=3.13D-03 MaxDP=3.63D-02 DE=-2.34D-03 OVMax= 0.00D+00

 Cycle   6  Pass 1  IDiag  1:
 E= -165.455409878527     Delta-E=       -0.001519695524 Rises=F Damp=F
 DIIS: error= 4.00D-03 at cycle   6 NSaved=   6.
 NSaved= 6 IEnMin= 6 EnMin= -165.455409878527     IErMin= 6 ErrMin= 4.00D-03
 ErrMax= 4.00D-03  0.00D+00 EMaxC= 1.00D-01 BMatC= 3.78D-04 BMatP= 7.15D-04
 IDIUse=3 WtCom= 9.60D-01 WtEn= 4.00D-02
 Coeff-Com: -0.267D-01 0.234D+00 0.748D-01-0.942D+00-0.626D+00 0.229D+01
 Coeff-En:   0.000D+00 0.000D+00 0.000D+00 0.000D+00 0.000D+00 0.100D+01
 Coeff:     -0.256D-01 0.225D+00 0.718D-01-0.904D+00-0.601D+00 0.223D+01
 Gap=     0.593 Goal=   None    Shift=    0.000
 Gap=     0.590 Goal=   None    Shift=    0.000
 RMSDP=4.72D-03 MaxDP=4.85D-02 DE=-1.52D-03 OVMax= 0.00D+00

 Cycle   7  Pass 1  IDiag  1:
 E= -165.456555900586     Delta-E=       -0.001146022059 Rises=F Damp=F
 DIIS: error= 1.02D-03 at cycle   7 NSaved=   7.
 NSaved= 7 IEnMin= 7 EnMin= -165.456555900586     IErMin= 7 ErrMin= 1.02D-03
 ErrMax= 1.02D-03  0.00D+00 EMaxC= 1.00D-01 BMatC= 2.44D-05 BMatP= 3.78D-04
 IDIUse=3 WtCom= 9.90D-01 WtEn= 1.02D-02
 Coeff-Com:  0.103D-01-0.146D+00 0.691D-01 0.511D+00-0.106D+00-0.774D+00
 Coeff-Com:  0.144D+01
 Coeff-En:   0.000D+00 0.000D+00 0.000D+00 0.000D+00 0.000D+00 0.000D+00
 Coeff-En:   0.100D+01
 Coeff:      0.102D-01-0.145D+00 0.684D-01 0.506D+00-0.105D+00-0.766D+00
 Coeff:      0.143D+01
 Gap=     0.593 Goal=   None    Shift=    0.000
 Gap=     0.589 Goal=   None    Shift=    0.000
 RMSDP=5.13D-04 MaxDP=3.70D-03 DE=-1.15D-03 OVMax= 0.00D+00

 Cycle   8  Pass 1  IDiag  1:
 E= -165.456589857423     Delta-E=       -0.000033956837 Rises=F Damp=F
 DIIS: error= 3.94D-04 at cycle   8 NSaved=   8.
 NSaved= 8 IEnMin= 8 EnMin= -165.456589857423     IErMin= 8 ErrMin= 3.94D-04
 ErrMax= 3.94D-04  0.00D+00 EMaxC= 1.00D-01 BMatC= 5.99D-06 BMatP= 2.44D-05
 IDIUse=3 WtCom= 9.96D-01 WtEn= 3.94D-03
 Coeff-Com: -0.526D-02 0.841D-01-0.351D-01-0.333D+00 0.885D-01 0.333D+00
 Coeff-Com: -0.110D+01 0.197D+01
 Coeff-En:   0.000D+00 0.000D+00 0.000D+00 0.000D+00 0.000D+00 0.000D+00
 Coeff-En:   0.000D+00 0.100D+01
 Coeff:     -0.524D-02 0.838D-01-0.349D-01-0.332D+00 0.882D-01 0.332D+00
 Coeff:     -0.110D+01 0.197D+01
 Gap=     0.595 Goal=   None    Shift=    0.000
 Gap=     0.593 Goal=   None    Shift=    0.000
 RMSDP=8.15D-04 MaxDP=7.61D-03 DE=-3.40D-05 OVMax= 0.00D+00

 Cycle   9  Pass 1  IDiag  1:
 E= -165.456600256597     Delta-E=       -0.000010399173 Rises=F Damp=F
 DIIS: error= 2.40D-04 at cycle   9 NSaved=   9.
 NSaved= 9 IEnMin= 9 EnMin= -165.456600256597     IErMin= 9 ErrMin= 2.40D-04
 ErrMax= 2.40D-04  0.00D+00 EMaxC= 1.00D-01 BMatC= 2.37D-06 BMatP= 5.99D-06
 IDIUse=3 WtCom= 9.98D-01 WtEn= 2.40D-03
 Coeff-Com:  0.235D-03-0.423D-02-0.491D-02 0.566D-01-0.303D-01 0.971D-01
 Coeff-Com:  0.146D+00-0.682D+00 0.142D+01
 Coeff-En:   0.000D+00 0.000D+00 0.000D+00 0.000D+00 0.000D+00 0.000D+00
 Coeff-En:   0.000D+00 0.000D+00 0.100D+01
 Coeff:      0.235D-03-0.422D-02-0.490D-02 0.565D-01-0.302D-01 0.969D-01
 Coeff:      0.146D+00-0.680D+00 0.142D+01
 Gap=     0.594 Goal=   None    Shift=    0.000
 Gap=     0.591 Goal=   None    Shift=    0.000
 RMSDP=4.29D-04 MaxDP=3.96D-03 DE=-1.04D-05 OVMax= 0.00D+00

 Cycle  10  Pass 1  IDiag  1:
 E= -165.456603295651     Delta-E=       -0.000003039054 Rises=F Damp=F
 DIIS: error= 1.11D-04 at cycle  10 NSaved=  10.
 NSaved=10 IEnMin=10 EnMin= -165.456603295651     IErMin=10 ErrMin= 1.11D-04
 ErrMax= 1.11D-04  0.00D+00 EMaxC= 1.00D-01 BMatC= 4.24D-07 BMatP= 2.37D-06
 IDIUse=3 WtCom= 9.99D-01 WtEn= 1.11D-03
 Coeff-Com:  0.624D-03-0.112D-01 0.531D-02 0.219D-01 0.102D-02-0.123D+00
 Coeff-Com:  0.114D+00-0.568D-01-0.557D+00 0.161D+01
 Coeff-En:   0.000D+00 0.000D+00 0.000D+00 0.000D+00 0.000D+00 0.000D+00
 Coeff-En:   0.000D+00 0.000D+00 0.000D+00 0.100D+01
 Coeff:      0.623D-03-0.112D-01 0.531D-02 0.219D-01 0.102D-02-0.123D+00
 Coeff:      0.114D+00-0.567D-01-0.557D+00 0.160D+01
 Gap=     0.594 Goal=   None    Shift=    0.000
 Gap=     0.592 Goal=   None    Shift=    0.000
 RMSDP=2.08D-04 MaxDP=1.98D-03 DE=-3.04D-06 OVMax= 0.00D+00

 Cycle  11  Pass 1  IDiag  1:
 E= -165.456604231273     Delta-E=       -0.000000935622 Rises=F Damp=F
 DIIS: error= 4.73D-05 at cycle  11 NSaved=  11.
 NSaved=11 IEnMin=11 EnMin= -165.456604231273     IErMin=11 ErrMin= 4.73D-05
 ErrMax= 4.73D-05  0.00D+00 EMaxC= 1.00D-01 BMatC= 6.66D-08 BMatP= 4.24D-07
 IDIUse=1 WtCom= 1.00D+00 WtEn= 0.00D+00
 Coeff-Com: -0.145D-03 0.309D-02-0.323D-03-0.997D-02 0.270D-02 0.150D-01
 Coeff-Com: -0.489D-01 0.128D+00-0.117D+00-0.184D+00 0.121D+01
 Coeff:     -0.145D-03 0.309D-02-0.323D-03-0.997D-02 0.270D-02 0.150D-01
 Coeff:     -0.489D-01 0.128D+00-0.117D+00-0.184D+00 0.121D+01
 Gap=     0.594 Goal=   None    Shift=    0.000
 Gap=     0.592 Goal=   None    Shift=    0.000
 RMSDP=5.39D-05 MaxDP=5.34D-04 DE=-9.36D-07 OVMax= 0.00D+00

 Cycle  12  Pass 1  IDiag  1:
 E= -165.456604359374     Delta-E=       -0.000000128101 Rises=F Damp=F
 DIIS: error= 4.82D-06 at cycle  12 NSaved=  12.
 NSaved=12 IEnMin=12 EnMin= -165.456604359374     IErMin=12 ErrMin= 4.82D-06
 ErrMax= 4.82D-06  0.00D+00 EMaxC= 1.00D-01 BMatC= 7.83D-10 BMatP= 6.66D-08
 IDIUse=1 WtCom= 1.00D+00 WtEn= 0.00D+00
 Coeff-Com: -0.104D-04-0.324D-03-0.263D-03 0.312D-03-0.125D-02-0.205D-03
 Coeff-Com:  0.820D-02-0.343D-01 0.444D-01 0.180D-01-0.587D+00 0.155D+01
 Coeff:     -0.104D-04-0.324D-03-0.263D-03 0.312D-03-0.125D-02-0.205D-03
 Coeff:      0.820D-02-0.343D-01 0.444D-01 0.180D-01-0.587D+00 0.155D+01
 Gap=     0.594 Goal=   None    Shift=    0.000
 Gap=     0.592 Goal=   None    Shift=    0.000
 RMSDP=7.01D-06 MaxDP=5.80D-05 DE=-1.28D-07 OVMax= 0.00D+00

 Cycle  13  Pass 1  IDiag  1:
 E= -165.456604359584     Delta-E=       -0.000000000210 Rises=F Damp=F
 DIIS: error= 3.90D-06 at cycle  13 NSaved=  13.
 NSaved=13 IEnMin=13 EnMin= -165.456604359584     IErMin=13 ErrMin= 3.90D-06
 ErrMax= 3.90D-06  0.00D+00 EMaxC= 1.00D-01 BMatC= 5.25D-10 BMatP= 7.83D-10
 IDIUse=1 WtCom= 1.00D+00 WtEn= 0.00D+00
 Coeff-Com:  0.877D-05-0.617D-04 0.813D-04-0.190D-03 0.776D-03-0.366D-02
 Coeff-Com: -0.900D-03 0.120D-01-0.356D-01 0.638D-01 0.673D-01-0.622D+00
 Coeff-Com:  0.152D+01
 Coeff:      0.877D-05-0.617D-04 0.813D-04-0.190D-03 0.776D-03-0.366D-02
 Coeff:     -0.900D-03 0.120D-01-0.356D-01 0.638D-01 0.673D-01-0.622D+00
 Coeff:      0.152D+01
 Gap=     0.594 Goal=   None    Shift=    0.000
 Gap=     0.592 Goal=   None    Shift=    0.000
 RMSDP=2.97D-06 MaxDP=2.76D-05 DE=-2.10D-10 OVMax= 0.00D+00

 Cycle  14  Pass 1  IDiag  1:
 E= -165.456604360429     Delta-E=       -0.000000000845 Rises=F Damp=F
 DIIS: error= 1.58D-06 at cycle  14 NSaved=  14.
 NSaved=14 IEnMin=14 EnMin= -165.456604360429     IErMin=14 ErrMin= 1.58D-06
 ErrMax= 1.58D-06  0.00D+00 EMaxC= 1.00D-01 BMatC= 6.68D-11 BMatP= 5.25D-10
 IDIUse=1 WtCom= 1.00D+00 WtEn= 0.00D+00
 Coeff-Com: -0.864D-05 0.473D-04 0.209D-04-0.316D-03-0.472D-03 0.160D-02
 Coeff-Com:  0.384D-05-0.498D-02 0.128D-01-0.179D-01-0.691D-01 0.415D+00
 Coeff-Com: -0.114D+01 0.181D+01
 Coeff:     -0.864D-05 0.473D-04 0.209D-04-0.316D-03-0.472D-03 0.160D-02
 Coeff:      0.384D-05-0.498D-02 0.128D-01-0.179D-01-0.691D-01 0.415D+00
 Coeff:     -0.114D+01 0.181D+01
 Gap=     0.594 Goal=   None    Shift=    0.000
 Gap=     0.592 Goal=   None    Shift=    0.000
 RMSDP=1.38D-06 MaxDP=1.37D-05 DE=-8.45D-10 OVMax= 0.00D+00

 Cycle  15  Pass 1  IDiag  1:
 E= -165.456604360558     Delta-E=       -0.000000000128 Rises=F Damp=F
 DIIS: error= 2.80D-07 at cycle  15 NSaved=  15.
 NSaved=15 IEnMin=15 EnMin= -165.456604360558     IErMin=15 ErrMin= 2.80D-07
 ErrMax= 2.80D-07  0.00D+00 EMaxC= 1.00D-01 BMatC= 2.88D-12 BMatP= 6.68D-11
 IDIUse=1 WtCom= 1.00D+00 WtEn= 0.00D+00
 Coeff-Com:  0.187D-05 0.292D-05-0.467D-04 0.575D-04 0.263D-03-0.621D-03
 Coeff-Com: -0.907D-04 0.198D-02-0.484D-02 0.580D-02 0.217D-01-0.136D+00
 Coeff-Com:  0.439D+00-0.108D+01 0.175D+01
 Coeff:      0.187D-05 0.292D-05-0.467D-04 0.575D-04 0.263D-03-0.621D-03
 Coeff:     -0.907D-04 0.198D-02-0.484D-02 0.580D-02 0.217D-01-0.136D+00
 Coeff:      0.439D+00-0.108D+01 0.175D+01
 Gap=     0.594 Goal=   None    Shift=    0.000
 Gap=     0.592 Goal=   None    Shift=    0.000
 RMSDP=3.34D-07 MaxDP=2.86D-06 DE=-1.28D-10 OVMax= 0.00D+00

 Cycle  16  Pass 1  IDiag  1:
 E= -165.456604360563     Delta-E=       -0.000000000005 Rises=F Damp=F
 DIIS: error= 1.82D-08 at cycle  16 NSaved=  16.
 NSaved=16 IEnMin=16 EnMin= -165.456604360563     IErMin=16 ErrMin= 1.82D-08
 ErrMax= 1.82D-08  0.00D+00 EMaxC= 1.00D-01 BMatC= 4.13D-14 BMatP= 2.88D-12
 IDIUse=1 WtCom= 1.00D+00 WtEn= 0.00D+00
 Coeff-Com: -0.498D-06-0.273D-05 0.211D-04-0.131D-04-0.108D-03 0.224D-03
 Coeff-Com:  0.249D-04-0.652D-03 0.163D-02-0.178D-02-0.676D-02 0.423D-01
 Coeff-Com: -0.147D+00 0.416D+00-0.825D+00 0.152D+01
 Coeff:     -0.498D-06-0.273D-05 0.211D-04-0.131D-04-0.108D-03 0.224D-03
 Coeff:      0.249D-04-0.652D-03 0.163D-02-0.178D-02-0.676D-02 0.423D-01
 Coeff:     -0.147D+00 0.416D+00-0.825D+00 0.152D+01
 Gap=     0.594 Goal=   None    Shift=    0.000
 Gap=     0.592 Goal=   None    Shift=    0.000
 RMSDP=2.86D-08 MaxDP=1.77D-07 DE=-4.95D-12 OVMax= 0.00D+00

 Cycle  17  Pass 1  IDiag  1:
 E= -165.456604360563     Delta-E=        0.000000000000 Rises=F Damp=F
 DIIS: error= 1.43D-08 at cycle  17 NSaved=  17.
 NSaved=17 IEnMin=17 EnMin= -165.456604360563     IErMin=17 ErrMin= 1.43D-08
 ErrMax= 1.43D-08  0.00D+00 EMaxC= 1.00D-01 BMatC= 6.86D-15 BMatP= 4.13D-14
 IDIUse=1 WtCom= 1.00D+00 WtEn= 0.00D+00
 Large coefficients: NSaved= 17 BigCof=    0.00 CofMax=   10.00 Det=-2.46D-15
 Inversion failed.  Reducing to 16 matrices.
 Large coefficients: NSaved= 16 BigCof=    0.00 CofMax=   10.00 Det=-2.93D-15
 Inversion failed.  Reducing to 15 matrices.
 Coeff-Com: -0.273D-05 0.763D-06 0.116D-04-0.238D-04 0.110D-04 0.109D-04
 Coeff-Com: -0.836D-04 0.561D-04 0.118D-03-0.868D-03 0.710D-02-0.361D-01
 Coeff-Com:  0.113D+00-0.489D+00 0.141D+01
 Coeff:     -0.273D-05 0.763D-06 0.116D-04-0.238D-04 0.110D-04 0.109D-04
 Coeff:     -0.836D-04 0.561D-04 0.118D-03-0.868D-03 0.710D-02-0.361D-01
 Coeff:      0.113D+00-0.489D+00 0.141D+01
 Gap=     0.594 Goal=   None    Shift=    0.000
 Gap=     0.592 Goal=   None    Shift=    0.000
 RMSDP=2.27D-08 MaxDP=2.04D-07 DE=-2.84D-13 OVMax= 0.00D+00

 Cycle  18  Pass 1  IDiag  1:
 E= -165.456604360562     Delta-E=        0.000000000001 Rises=F Damp=F
 DIIS: error= 5.63D-09 at cycle  18 NSaved=  16.
 NSaved=16 IEnMin=15 EnMin= -165.456604360563     IErMin=16 ErrMin= 5.63D-09
 ErrMax= 5.63D-09  0.00D+00 EMaxC= 1.00D-01 BMatC= 1.46D-15 BMatP= 6.86D-15
 IDIUse=1 WtCom= 1.00D+00 WtEn= 0.00D+00
 Large coefficients: NSaved= 16 BigCof=    0.00 CofMax=   10.00 Det=-2.22D-16
 Inversion failed.  Reducing to 15 matrices.
 Coeff-Com: -0.411D-06-0.226D-06-0.210D-05-0.153D-05 0.992D-05-0.317D-04
 Coeff-Com:  0.102D-03-0.134D-03-0.219D-03 0.100D-02-0.147D-02-0.685D-02
 Coeff-Com:  0.111D+00-0.588D+00 0.148D+01
 Coeff:     -0.411D-06-0.226D-06-0.210D-05-0.153D-05 0.992D-05-0.317D-04
 Coeff:      0.102D-03-0.134D-03-0.219D-03 0.100D-02-0.147D-02-0.685D-02
 Coeff:      0.111D+00-0.588D+00 0.148D+01
 Gap=     0.594 Goal=   None    Shift=    0.000
 Gap=     0.592 Goal=   None    Shift=    0.000
 RMSDP=4.92D-09 MaxDP=4.49D-08 DE= 7.39D-13 OVMax= 0.00D+00

 SCF Done:  E(UHF) =  -165.456604361     A.U. after   18 cycles
            NFock= 18  Conv=0.49D-08     -V/T= 2.0077
 <Sx>= 0.0000 <Sy>= 0.0000 <Sz>= 1.0000 <S**2>= 2.2568 S= 1.0833
 <L.S>= 0.000000000000E+00
 KE= 1.641855299448D+02 PE=-5.016626757742D+02 EE= 1.162644895461D+02
 Annihilation of the first spin contaminant:
 S**2 before annihilation     2.2568,   after     2.0053
 Leave Link  502 at Fri Apr 15 18:54:13 2022, MaxMem=   131072000 cpu:               0.0 elap:               0.1
 (Enter C:\G16W\l801.exe)
 Range of M.O.s used for correlation:     1    16
 NBasis=    16 NAE=    12 NBE=    10 NFC=     0 NFV=     0
 NROrb=     16 NOA=    12 NOB=    10 NVA=     4 NVB=     6
 Leave Link  801 at Fri Apr 15 18:54:13 2022, MaxMem=   131072000 cpu:               0.0 elap:               0.0
 (Enter C:\G16W\l1101.exe)
 Using compressed storage, NAtomX=     4.
 Will process      5 centers per pass.
 Leave Link 1101 at Fri Apr 15 18:54:13 2022, MaxMem=   131072000 cpu:               0.0 elap:               0.1
 (Enter C:\G16W\l1102.exe)
 Symmetrizing basis deriv contribution to polar:
 IMax=3 JMax=2 DiffMx= 0.00D+00
 Leave Link 1102 at Fri Apr 15 18:54:13 2022, MaxMem=   131072000 cpu:               0.0 elap:               0.0
 (Enter C:\G16W\l1110.exe)
 Forming Gx(P) for the SCF density, NAtomX=     4.
 Integral derivatives from FoFJK, PRISM(SPDF).
 Do as many integral derivatives as possible in FoFJK.
 G2DrvN: MDV=     131071592.
 G2DrvN: will do     5 centers at a time, making    1 passes.
 Calling FoFCou, ICntrl=  3107 FMM=F I1Cent=   0 AccDes= 0.00D+00.
 FoFJK:  IHMeth= 1 ICntrl=    3107 DoSepK=F KAlg= 0 I1Cent=           0 FoldK=F
 IRaf=         0 NMat=       1 IRICut=       1 DoRegI=T DoRafI=F ISym2E= 0 IDoP0=0 IntGTp=1.
 FoFCou: FMM=F IPFlag=           0 FMFlag=      100000 FMFlg1=           0
         NFxFlg=           0 DoJE=F BraDBF=F KetDBF=F FulRan=T
         wScrn=  0.000000 ICntrl=      3107 IOpCl=  1 I1Cent=           0 NGrid=           0
         NMat0=    1 NMatS0=      1 NMatT0=    0 NMatD0=    1 NMtDS0=    0 NMtDT0=    0
 Symmetry not used in FoFCou.
 End of G2Drv F.D. properties file   721 does not exist.
 End of G2Drv F.D. properties file   722 does not exist.
 End of G2Drv F.D. properties file   788 does not exist.
 Leave Link 1110 at Fri Apr 15 18:54:13 2022, MaxMem=   131072000 cpu:               0.0 elap:               0.1
 (Enter C:\G16W\l1002.exe)
 Minotr:  UHF open shell wavefunction.
          IDoAtm=1111
          Direct CPHF calculation.
          Differentiating once with respect to electric field.
                with respect to dipole field.
          Differentiating once with respect to nuclear coordinates.
          Requested convergence is 1.0D-08 RMS, and 1.0D-07 maximum.
          Secondary convergence is 1.0D-12 RMS, and 1.0D-12 maximum.
          NewPWx=T KeepS1=F KeepF1=F KeepIn=T MapXYZ=F SortEE=F KeepMc=T.
 Keep R1 and R2 ints in memory in canonical form, NReq=824015.
 FoFCou: FMM=F IPFlag=           0 FMFlag=           0 FMFlg1=           0
         NFxFlg=           0 DoJE=F BraDBF=F KetDBF=F FulRan=T
         wScrn=  0.000000 ICntrl=       600 IOpCl=  0 I1Cent=           0 NGrid=           0
         NMat0=    1 NMatS0=    136 NMatT0=    0 NMatD0=    1 NMtDS0=    0 NMtDT0=    0
 Symmetry not used in FoFCou.
 Two-electron integral symmetry not used.
          MDV=     131072000 using IRadAn=       1.
          Solving linear equations simultaneously, MaxMat=       0.
          There are    15 degrees of freedom in the 1st order CPHF.  IDoFFX=6 NUNeed=     3.
     12 vectors produced by pass  0 Test12= 7.20D-16 6.67D-09 XBig12= 1.10D+01 1.94D+00.
 AX will form    12 AO Fock derivatives at one time.
     12 vectors produced by pass  1 Test12= 7.20D-16 6.67D-09 XBig12= 5.55D-01 2.86D-01.
     12 vectors produced by pass  2 Test12= 7.20D-16 6.67D-09 XBig12= 1.72D-02 4.02D-02.
     12 vectors produced by pass  3 Test12= 7.20D-16 6.67D-09 XBig12= 2.11D-04 4.97D-03.
     12 vectors produced by pass  4 Test12= 7.20D-16 6.67D-09 XBig12= 2.12D-06 4.30D-04.
     12 vectors produced by pass  5 Test12= 7.20D-16 6.67D-09 XBig12= 1.27D-08 3.52D-05.
     12 vectors produced by pass  6 Test12= 7.20D-16 6.67D-09 XBig12= 5.85D-11 3.64D-06.
      6 vectors produced by pass  7 Test12= 7.20D-16 6.67D-09 XBig12= 2.27D-13 2.10D-07.
      1 vectors produced by pass  8 Test12= 7.20D-16 6.67D-09 XBig12= 2.51D-15 1.78D-08.
 InvSVY:  IOpt=1 It=  1 EMax= 1.11D-15
 Solved reduced A of dimension    91 with    12 vectors.
 FullF1:  Do perturbations      1 to       3.
 Isotropic polarizability for W=    0.000000       10.36 Bohr**3.
 End of Minotr F.D. properties file   721 does not exist.
 End of Minotr F.D. properties file   722 does not exist.
 End of Minotr F.D. properties file   788 does not exist.
 Leave Link 1002 at Fri Apr 15 18:54:13 2022, MaxMem=   131072000 cpu:               0.0 elap:               0.1
 (Enter C:\G16W\l601.exe)
 Copying SCF densities to generalized density rwf, IOpCl= 1 IROHF=0.

 **********************************************************************

            Population analysis using the SCF density.

 **********************************************************************

 Orbital symmetries:
 Alpha Orbitals:
       Occupied  (A) (A) (A) (A) (A) (A) (A) (A) (A) (A) (A) (A)
       Virtual   (A) (A) (A) (A)
 Beta  Orbitals:
       Occupied  (A) (A) (A) (A) (A) (A) (A) (A) (A) (A)
       Virtual   (A) (A) (A) (A) (A) (A)
 The electronic state is 3-A.
 Alpha  occ. eigenvalues --  -20.38627 -15.40376 -11.08500  -1.41434  -1.19034
 Alpha  occ. eigenvalues --   -0.73179  -0.64545  -0.59498  -0.56975  -0.49343
 Alpha  occ. eigenvalues --   -0.47144  -0.27336
 Alpha virt. eigenvalues --    0.32057   0.54591   0.72674   0.94350
  Beta  occ. eigenvalues --  -20.35884 -15.37615 -11.07981  -1.30377  -1.06474
  Beta  occ. eigenvalues --   -0.68289  -0.55062  -0.45693  -0.42642  -0.38810
  Beta virt. eigenvalues --    0.20372   0.27359   0.43241   0.58659   0.75785
  Beta virt. eigenvalues --    1.01990
          Condensed to atoms (all electrons):
               1          2          3          4
     1  H    0.557548   0.306499  -0.042912   0.001076
     2  N    0.306499   6.586661   0.332635  -0.014630
     3  C   -0.042912   0.332635   5.194354   0.368412
     4  O    0.001076  -0.014630   0.368412   7.759277
          Atomic-Atomic Spin Densities.
               1          2          3          4
     1  H   -0.047512  -0.008980  -0.009005   0.000076
     2  N   -0.008980   1.189735  -0.053757   0.000936
     3  C   -0.009005  -0.053757   0.184944  -0.117827
     4  O    0.000076   0.000936  -0.117827   1.049945
 Mulliken charges and spin densities:
               1          2
     1  H    0.177790  -0.065420
     2  N   -0.211165   1.127935
     3  C    0.147511   0.004355
     4  O   -0.114135   0.933130
 Sum of Mulliken charges =   0.00000   2.00000
 Mulliken charges and spin densities with hydrogens summed into heavy atoms:
               1          2
     2  N   -0.033375   1.062515
     3  C    0.147511   0.004355
     4  O   -0.114135   0.933130
 APT charges:
               1
     1  H    0.193094
     2  N   -0.107330
     3  C   -0.156583
     4  O    0.070819
 Sum of APT charges =   0.00000
 APT charges with hydrogens summed into heavy atoms:
               1
     2  N    0.085764
     3  C   -0.156583
     4  O    0.070819
 Electronic spatial extent (au):  <R**2>=            127.9236
 Charge=              0.0000 electrons
 Dipole moment (field-independent basis, Debye):
    X=             -1.1057    Y=              1.2240    Z=              0.0001  Tot=              1.6494
 Quadrupole moment (field-independent basis, Debye-Ang):
   XX=            -15.1121   YY=            -15.7610   ZZ=            -13.9977
   XY=             -2.1371   XZ=             -0.0001   YZ=              0.0000
 Traceless Quadrupole moment (field-independent basis, Debye-Ang):
   XX=             -0.1552   YY=             -0.8041   ZZ=              0.9592
   XY=             -2.1371   XZ=             -0.0001   YZ=              0.0000
 Octapole moment (field-independent basis, Debye-Ang**2):
  XXX=             -1.9611  YYY=             -0.6752  ZZZ=              0.0001  XYY=              1.5433
  XXY=              3.7263  XXZ=              0.0001  XZZ=              1.6513  YZZ=             -0.3780
  YYZ=              0.0001  XYZ=              0.0000
 Hexadecapole moment (field-independent basis, Debye-Ang**3):
 XXXX=            -99.1811 YYYY=            -17.1235 ZZZZ=             -8.8290 XXXY=             -6.8750
 XXXZ=             -0.0004 YYYX=             -1.9314 YYYZ=              0.0000 ZZZX=              0.0000
 ZZZY=              0.0000 XXYY=            -20.0968 XXZZ=            -17.9718 YYZZ=             -4.2598
 XXYZ=              0.0001 YYXZ=              0.0000 ZZXY=             -0.3270
 N-N= 5.575605192267D+01 E-N=-5.016626757917D+02  KE= 1.641855299448D+02
  Exact polarizability:  18.467  -2.096   5.816   0.000   0.000   6.799
 Approx polarizability:  17.840  -1.855   5.349   0.000   0.000   2.781
                          Isotropic Fermi Contact Couplings
        Atom                 a.u.       MegaHertz       Gauss      10(-4) cm-1
     1  H(1)              -0.01920     -42.90269     -15.30875     -14.31080
     2  N(14)              0.12929      20.88762       7.45322       6.96736
     3  C(13)              0.22384     125.81680      44.89456      41.96797
     4  O(17)              0.12345     -37.41851     -13.35186     -12.48147
 --------------------------------------------------------
       Center         ----  Spin Dipole Couplings  ----
                      3XX-RR        3YY-RR        3ZZ-RR
 --------------------------------------------------------
     1   Atom        0.039555      0.027046     -0.066601
     2   Atom       -0.657962     -0.615130      1.273092
     3   Atom        0.026172      0.971167     -0.997339
     4   Atom       -1.320605     -0.188568      1.509173
 --------------------------------------------------------
                        XY            XZ            YZ
 --------------------------------------------------------
     1   Atom       -0.128472     -0.000007      0.000006
     2   Atom        0.285744      0.000051     -0.000084
     3   Atom       -0.050550      0.000005      0.000019
     4   Atom       -0.149974     -0.000084     -0.000091
 --------------------------------------------------------


 ---------------------------------------------------------------------------------
              Anisotropic Spin Dipole Couplings in Principal Axis System
 ---------------------------------------------------------------------------------

       Atom             a.u.   MegaHertz   Gauss  10(-4) cm-1        Axes

              Baa    -0.0953   -50.860   -18.148   -16.965  0.6897  0.7241  0.0000
     1 H(1)   Bbb    -0.0666   -35.535   -12.680   -11.853  0.0000  0.0000  1.0000
              Bcc     0.1619    86.395    30.828    28.818  0.7241 -0.6897  0.0000
 
              Baa    -0.9231   -35.602   -12.704   -11.875  0.7331 -0.6802  0.0000
     2 N(14)  Bbb    -0.3500   -13.499    -4.817    -4.503  0.6802  0.7331  0.0000
              Bcc     1.2731    49.100    17.520    16.378  0.0000  0.0000  1.0000
 
              Baa    -0.9973  -133.833   -47.755   -44.642  0.0000  0.0000  1.0000
     3 C(13)  Bbb     0.0235     3.150     1.124     1.051  0.9986  0.0533  0.0000
              Bcc     0.9739   130.683    46.631    43.591 -0.0533  0.9986  0.0000
 
              Baa    -1.3401    96.971    34.602    32.346  0.9916  0.1291  0.0000
     4 O(17)  Bbb    -0.1690    12.231     4.364     4.080 -0.1291  0.9916  0.0000
              Bcc     1.5092  -109.203   -38.966   -36.426  0.0000 -0.0001  1.0000
 

 ---------------------------------------------------------------------------------

 No NMR shielding tensors so no spin-rotation constants.
 Leave Link  601 at Fri Apr 15 18:54:14 2022, MaxMem=   131072000 cpu:               0.0 elap:               0.1
 (Enter C:\G16W\l701.exe)
 SCFChk:  SCF convergence  4.92D-09 required  1.00D-08
 ... and contract with generalized density number  0.
 Compute integral second derivatives.
 Entering OneElI...
 Calculate overlap and kinetic energy integrals
    NBasis =  16  MinDer = 2  MaxDer = 2
 Requested accuracy = 0.1000D-12
 PrmmSu-InSpLW:  IPartL=    0 NPrtUS=    1 NPrtUL=    1 DoSpLW=F IThBeg=    0 IThEnd=    0 NThAct=    1.
 PrsmSu:  NPrtUS=   1 ThrOK=F IAlg=1 NPAlg=1 LenDen=           0 ISkipM=0 DoSpLW=F IThBeg=    0 IThEnd=    0.
 Prism:   IPart=     0 DynPar=F LinDyn=F Incr=           1.
 PRISM was handed   131065534 working-precision words and    28 shell-pairs
 IPart=  0 NShTot=          28 NBatch=           8 AvBLen=         3.5
 PrSmSu:  NxtVal=              2.
 Entering OneElI...
 Calculate potential energy integrals
    NBasis =  16  MinDer = 2  MaxDer = 2
 Requested accuracy = 0.1000D-12
 PrmmSu-InSpLW:  IPartL=    0 NPrtUS=    1 NPrtUL=    1 DoSpLW=F IThBeg=    0 IThEnd=    0 NThAct=    1.
 PrsmSu:  NPrtUS=   1 ThrOK=F IAlg=1 NPAlg=1 LenDen=           0 ISkipM=0 DoSpLW=F IThBeg=    0 IThEnd=    0.
 Prism:   IPart=     0 DynPar=F LinDyn=F Incr=           1.
 PRISM was handed   131065828 working-precision words and    27 shell-pairs
 IPart=  0 NShTot=         108 NBatch=          27 AvBLen=         4.0
 PrSmSu:  NxtVal=              2.
 Polarizability after L701:
                1             2             3 
      1  0.184666D+02
      2 -0.209643D+01  0.581619D+01
      3 -0.428107D-04 -0.139339D-03  0.679882D+01
 Dipole Derivatives after L701:
                 1             2             3             4             5 
      1   0.232628D+00  0.159079D+00  0.835119D-05  0.159836D-01 -0.981428D-01
      2   0.876489D-01  0.229346D-01 -0.197608D-04  0.147191D-01 -0.105895D-01
      3   0.688554D-05 -0.148071D-04  0.323719D+00  0.000000D+00  0.136926D-04
                 6             7             8             9            10 
      1  -0.103874D-04 -0.621728D+00  0.107387D+00 -0.465312D-05  0.373117D+00
      2   0.236816D-04 -0.819058D-01  0.144037D+00  0.000000D+00 -0.204622D-01
      3  -0.327383D+00 -0.191851D-04  0.149155D-04  0.794157D-02  0.126774D-04
                11            12 
      1  -0.168324D+00  0.668932D-05
      2  -0.156383D+00 -0.421205D-05
      3  -0.138010D-04 -0.427794D-02
 Hessian after L701:
                1             2             3             4             5 
      1  0.175520D+01
      2  0.892503D+00  0.168317D+01
      3  0.514142D-04 -0.549594D-04  0.245483D+01
      4 -0.167339D+01 -0.750916D+00 -0.509982D-04  0.674770D+00
      5 -0.920014D+00 -0.176636D+01  0.557858D-04 -0.141643D+01  0.658528D+01
      6 -0.593650D-04  0.519422D-04 -0.248192D+01  0.905688D-04 -0.405494D-04
      7 -0.195241D+00 -0.623292D-01  0.341696D-05  0.114691D+00  0.218458D+01
      8  0.744470D-01  0.977173D-01 -0.283084D-05  0.200155D+01 -0.436279D+01
      9  0.990143D-05  0.239854D-05  0.530220D-01 -0.483334D-04 -0.159912D-04
     10  0.113430D+00 -0.792578D-01 -0.383298D-05  0.883926D+00  0.151869D+00
     11 -0.469363D-01 -0.145291D-01  0.200444D-05  0.165794D+00 -0.456127D+00
     12 -0.195062D-05  0.000000D+00 -0.259327D-01  0.876280D-05  0.000000D+00
                6             7             8             9            10 
      6  0.881166D+01
      7 -0.408423D-04 -0.753160D+00
      8 -0.106196D-04  0.895740D+00  0.111261D+02
      9 -0.577582D+01 -0.104509D-03  0.732661D-04  0.146025D+02
     10  0.963854D-05  0.833710D+00 -0.297174D+01  0.142941D-03 -0.183107D+01
     11  0.000000D+00 -0.301799D+01 -0.686101D+01 -0.596734D-04  0.289913D+01
     12 -0.553924D+00  0.141935D-03 -0.598156D-04 -0.887971D+01 -0.148747D-03
               11            12 
     11  0.733166D+01
     12  0.584421D-04  0.945957D+01
 Leave Link  701 at Fri Apr 15 18:54:14 2022, MaxMem=   131072000 cpu:               0.0 elap:               0.1
 (Enter C:\G16W\l702.exe)
 L702 exits ... SP integral derivatives will be done elsewhere.
 Leave Link  702 at Fri Apr 15 18:54:14 2022, MaxMem=   131072000 cpu:               0.0 elap:               0.0
 (Enter C:\G16W\l703.exe)
 Integral derivatives from FoFJK, PRISM(SPDF).
 Compute integral second derivatives, UseDBF=F ICtDFT=           0.
 ICntrl=    100127.
 Calling FoFJK, ICntrl=    100127 FMM=F ISym2X=0 I1Cent= 0 IOpClX= 1 NMat=1 NMatS=1 NMatT=0.
 FoFJK:  IHMeth= 1 ICntrl=  100127 DoSepK=F KAlg= 0 I1Cent=           0 FoldK=F
 IRaf=         0 NMat=       1 IRICut=       1 DoRegI=T DoRafI=F ISym2E= 0 IDoP0=0 IntGTp=1.
 FoFCou: FMM=F IPFlag=           0 FMFlag=      100000 FMFlg1=         800
         NFxFlg=           0 DoJE=F BraDBF=F KetDBF=F FulRan=T
         wScrn=  0.000000 ICntrl=    100127 IOpCl=  1 I1Cent=           0 NGrid=           0
         NMat0=    1 NMatS0=      1 NMatT0=    0 NMatD0=    1 NMtDS0=    0 NMtDT0=    0
 Symmetry not used in FoFCou.
 FoFCou:  KetSym=F NOpSet=  1 NOpAb=1 NOp=  1.
 FoFCou:  CnvScl= 1.00D+00 Thresh= 1.00D-12 IAcrcy=      10.
 PrismS was handed   131065893 working-precision words and    27 shell-pairs
 FoFCou: LinMIO=F DoNuc=F BraDBF=F KetDBF=F HaveP=T PDBF=F HaveZ=T HaveW=F
         NIJTC =       3 NIJTAt=       0 NIJTCD=       0 NIJTT =       3
         IJTBeg=       1 IJTEnd=       3 KLTBeg=       1 KLTEnd=       3
         IPTBeg=       1 IPTEnd=       3 IPTBCv=       1 IPTECv=       3
         IZTBeg=       1 IZTEnd=       3 IZTBCv=       1 IZTECv=       3
         IWTBeg=       4 IWTEnd=       3 IWTBCv=       4 IWTECv=       3
         INTBeg=       1 INTEnd=       0 IFTBCv=       1 IFTECv=       3
 NCel replicated for PrismC:     1
 CoulSu-InSpLW:  IPartL=    0 NPrtUS=    1 NPrtUL=    1 DoSpLW=F IThBeg=    0 IThEnd=    0 NThAct=    1.
 CoulSu:  IncDef=  1024 NBBP=            378 NTPThr=   100 NPartT=    1 Incr=           3 LDynOK=F GPUOK=T.
 CoulSu:  NPrtUS=   1 ThrOK=F IAlg=1 NPAlg=1 LenDen=           0 LWGrdD=           0 DoCopy=F ISkipM=0
          DoSpLW=F IThBeg=    0 IThEnd=    0.
 Enter PrismC:  IPart=  0 JobTyp=22 DoJE=F Cont=F.
 PrismC:  IPart=     0 DynPar=F LinDyn=F Incr=           3 UseFst=F UseS4=T ISplat=2.
 PrismC was handed   131065804 working-precision words and    27 shell-pairs
 IPart=  0 NShTot=         376 NShNF=         376 NShFF=           0 MinMC=      10
           NShCPU=         376 NBCPU=          31 AvBCPU=        12.1
           NShGPU=           0 NBGPU=           0 AvBGPU=         0.0
 CoulSu:  NxtVal=              4 LenVP=      131065805 MinMC=      10.
 Polarizability after L703:
                1             2             3 
      1  0.184666D+02
      2 -0.209643D+01  0.581619D+01
      3 -0.428107D-04 -0.139339D-03  0.679882D+01
 Dipole Derivatives after L703:
                 1             2             3             4             5 
      1   0.232628D+00  0.159079D+00  0.835119D-05  0.159836D-01 -0.981428D-01
      2   0.876489D-01  0.229346D-01 -0.197608D-04  0.147191D-01 -0.105895D-01
      3   0.688554D-05 -0.148071D-04  0.323719D+00  0.000000D+00  0.136926D-04
                 6             7             8             9            10 
      1  -0.103874D-04 -0.621728D+00  0.107387D+00 -0.465312D-05  0.373117D+00
      2   0.236816D-04 -0.819058D-01  0.144037D+00  0.000000D+00 -0.204622D-01
      3  -0.327383D+00 -0.191851D-04  0.149155D-04  0.794157D-02  0.126774D-04
                11            12 
      1  -0.168324D+00  0.668932D-05
      2  -0.156383D+00 -0.421205D-05
      3  -0.138010D-04 -0.427794D-02
 Hessian after L703:
                1             2             3             4             5 
      1  0.289684D+00
      2 -0.235341D+00  0.304695D+00
      3 -0.148586D-04  0.156440D-04  0.591587D-02
      4 -0.252237D+00  0.283365D+00  0.163419D-04  0.595689D+00
      5  0.197484D+00 -0.313519D+00 -0.137453D-04 -0.142788D+00  0.423809D+00
      6  0.134094D-04 -0.167391D-04 -0.120612D-02 -0.180768D-04  0.149632D-04
      7 -0.306472D-01 -0.457204D-01 -0.203756D-05 -0.114033D+00  0.211145D-01
      8  0.432657D-01  0.126313D-01 -0.263378D-05 -0.196946D+00 -0.183862D+00
      9  0.130609D-05  0.132501D-05 -0.125530D-01  0.370787D-05  0.000000D+00
     10 -0.679969D-02 -0.230372D-02  0.000000D+00 -0.229419D+00 -0.758102D-01
     11 -0.540870D-02 -0.380702D-02  0.000000D+00  0.563695D-01  0.735722D-01
     12  0.000000D+00  0.000000D+00  0.784326D-02 -0.197294D-05  0.000000D+00
                6             7             8             9            10 
      6 -0.242938D-01
      7  0.365265D-05  0.446869D+00
      8  0.305263D-05 -0.120025D+00  0.344532D+00
      9  0.401647D-01  0.453737D-05 -0.382263D-05 -0.523579D-01
     10  0.101481D-05 -0.302189D+00  0.273705D+00 -0.955132D-05  0.538407D+00
     11 -0.127677D-05  0.144631D+00 -0.173300D+00  0.337098D-05 -0.195592D+00
     12 -0.146648D-01 -0.615245D-05  0.340379D-05  0.247463D-01  0.798225D-05
               11            12 
     11  0.103535D+00
     12 -0.282933D-05 -0.179247D-01
 Leave Link  703 at Fri Apr 15 18:54:14 2022, MaxMem=   131072000 cpu:               0.0 elap:               0.1
 (Enter C:\G16W\l716.exe)
 FrcOut:
 IF    =        44 IFX   =        56 IFXYZ =        68
 IFFX  =        80 IFFFX =       158 IFLen =        12
 IFFLen=        78 IFFFLn=         0 IEDerv=       158
 LEDerv=       629 IFroze=       957 ICStrt=      1554
 Dipole        =-4.35009899D-01 4.81541102D-01 2.67829105D-05
 DipoleDeriv   = 2.32627590D-01 8.76489026D-02 6.88553684D-06
                 1.59078904D-01 2.29346284D-02-1.48071476D-05
                 8.35118589D-06-1.97608066D-05 3.23719346D-01
                 1.59836470D-02 1.47191122D-02-3.77804666D-07
                -9.81427834D-02-1.05895359D-02 1.36926459D-05
                -1.03873869D-05 2.36815856D-05-3.27382975D-01
                -6.21728188D-01-8.19058221D-02-1.91850978D-05
                 1.07387479D-01 1.44037409D-01 1.49155122D-05
                -4.65311763D-06 2.91274063D-07 7.94157231D-03
                 3.73116951D-01-2.04621926D-02 1.26773657D-05
                -1.68323599D-01-1.56382501D-01-1.38010104D-05
                 6.68931862D-06-4.21205299D-06-4.27794352D-03
 Polarizability= 1.84666139D+01-2.09642721D+00 5.81618602D+00
                -4.28107483D-05-1.39338678D-04 6.79882376D+00
 HyperPolar    = 1.09703717D+01 1.71518487D+01 7.20735184D-02
                 1.76008464D+01 1.77259304D-03 2.98329399D-04
                -3.44657984D-03 3.55785446D+00 2.99310211D+01
                 3.68805649D-03
 Quadrupole    =-1.15356949D-01-5.97813883D-01 7.13170833D-01
                -1.58885166D+00-9.22040887D-05 1.76546430D-05
 VibFq2-Diag1:  N=     12 IV=           5 MDV=   131069602 NE2=    10922466
 Full mass-weighted force constant matrix:
 Low frequencies --- -458.3301 -179.9754 -148.3897    0.0007    0.0009    0.0013
 Low frequencies ---  443.2217  516.5855 1041.2166
 OrtVCM:  Ph=1 IPass= 1 DotMx1= 0.00D+00
 OrtVCM:  IS=    1 I=    1 IndO=    1 Dot= 1.00D+00 DotN= 1.00D+00 ElMax1= 6.10D-01 ElMax1N= 6.10D-01
 OrtVCM:  Ph=2 NNew=    0 IAdd=    2 IPass= 1 DotMx2= 0.00D+00
 OrtVCM:  IS=    1 I=    2 IndO=    2 Dot= 1.00D+00 DotN= 1.00D+00 ElMax1= 6.10D-01 ElMax1N= 6.10D-01
 OrtVCM:  Ph=2 NNew=    0 IAdd=    3 IPass= 1 DotMx2= 0.00D+00
 OrtVCM:  IS=    1 I=    3 IndO=    3 Dot= 1.00D+00 DotN= 1.00D+00 ElMax1= 6.10D-01 ElMax1N= 6.10D-01
 OrtVCM:  Ph=2 NNew=    0 IAdd=    4 IPass= 1 DotMx2= 1.11D-16
 OrtVCM:  IS=    1 I=    4 IndO=    4 Dot= 1.00D+00 DotN= 1.00D+00 ElMax1= 7.46D-01 ElMax1N= 7.46D-01
 OrtVCM:  Ph=2 NNew=    0 IAdd=    5 IPass= 1 DotMx2= 8.33D-17
 OrtVCM:  IS=    1 I=    5 IndO=    5 Dot= 1.00D+00 DotN= 1.00D+00 ElMax1= 6.86D-01 ElMax1N= 6.86D-01
 OrtVCM:  Ph=2 NNew=    0 IAdd=    6 IPass= 1 DotMx2= 1.11D-16
 OrtVCM:  IS=    1 I=    6 IndO=    6 Dot= 1.00D+00 DotN= 1.00D+00 ElMax1= 6.69D-01 ElMax1N= 6.69D-01
 OrtVCM:  Ph=1 IPass= 1 DotMx1= 6.71D-01
 OrtVCM:  Ph=1 IPass= 2 DotMx1= 1.67D-16
 OrtVCM:  IS=    1 I=    1 IndO=    7 Dot= 9.70D-01 DotN= 9.70D-01 ElMax1= 9.70D-01 ElMax1N= 9.70D-01
 OrtVCM:  Ph=2 NNew=    0 IAdd=    2 IPass= 1 DotMx2= 2.21D-02
 OrtVCM:  Ph=2 NNew=    0 IAdd=    2 IPass= 2 DotMx2= 4.83D-18
 OrtVCM:  IS=    1 I=    2 IndO=    8 Dot= 9.00D-01 DotN= 9.00D-01 ElMax1= 9.00D-01 ElMax1N= 9.00D-01
 OrtVCM:  Ph=2 NNew=    0 IAdd=    3 IPass= 1 DotMx2= 1.09D-05
 OrtVCM:  Ph=2 NNew=    0 IAdd=    3 IPass= 2 DotMx2= 8.47D-22
 OrtVCM:  IS=    1 I=    3 IndO=    9 Dot= 7.59D-01 DotN= 7.59D-01 ElMax1= 7.59D-01 ElMax1N= 7.59D-01
 OrtVCM:  Ph=2 NNew=    0 IAdd=    4 IPass= 1 DotMx2= 7.91D-02
 OrtVCM:  Ph=2 NNew=    0 IAdd=    4 IPass= 2 DotMx2= 1.06D-17
 OrtVCM:  IS=    1 I=    4 IndO=   10 Dot= 6.53D-01 DotN= 6.53D-01 ElMax1= 6.53D-01 ElMax1N= 6.53D-01
 OrtVCM:  Ph=2 NNew=    0 IAdd=    5 IPass= 1 DotMx2= 2.83D-01
 OrtVCM:  Ph=2 NNew=    0 IAdd=    5 IPass= 2 DotMx2= 3.06D-17
 OrtVCM:  IS=    1 I=    5 IndO=   11 Dot= 1.58D-01 DotN= 1.58D-01 ElMax1= 3.18D-01 ElMax1N= 3.18D-01
 OrtVCM:  Ph=2 NNew=    0 IAdd=    6 IPass= 1 DotMx2= 1.22D-01
 OrtVCM:  Ph=2 NNew=    0 IAdd=    6 IPass= 2 DotMx2= 5.75D-18
 OrtVCM:  IS=    1 I=    6 IndO=    0 Dot= 3.29D-34 DotN= 3.29D-34 ElMax1= 1.38D-17 ElMax1N= 1.38D-17
 SchOr2:  IPass= 1 Test2A= 1.00D-01 IOff=     0 NDo=     6 NNew=     5
 OrtVCM:  Ph=1 IPass= 1 DotMx1= 5.28D-01
 OrtVCM:  Ph=1 IPass= 2 DotMx1= 2.66D-16
 OrtVCM:  IS=    1 I=    1 IndO=   12 Dot= 4.98D-01 DotN= 4.98D-01 ElMax1= 4.98D-01 ElMax1N= 4.98D-01
 SchOr2:  IPass= 1 Test2A= 1.00D-01 IOff=     6 NDo=     1 NNew=     1
 VibFq2-Diag2:  N=      6 IV=           5 MDV=   131069602 NE2=    21844933
 Dipole derivative wrt mode   1: -9.60190D-05 -3.81082D-04  9.06792D+00
 Vibrational polarizability contributions from mode   1       0.0000000       0.0000000      11.7722102
 Dipole derivative wrt mode   2: -2.17365D+00  8.53042D-01 -1.42828D-03
 Vibrational polarizability contributions from mode   2       0.4765477       0.0733951       0.0000002
 Dipole derivative wrt mode   3: -2.82964D+00  6.48803D-02 -3.69707D-04
 Vibrational polarizability contributions from mode   3       0.1989720       0.0001046       0.0000000
 Dipole derivative wrt mode   4:  4.27758D+00  1.47356D+00 -1.54196D-04
 Vibrational polarizability contributions from mode   4       0.3041444       0.0360926       0.0000000
 Dipole derivative wrt mode   5:  9.29676D+00  2.47067D+00  8.68536D-05
 Vibrational polarizability contributions from mode   5       0.9646346       0.0681282       0.0000000
 Dipole derivative wrt mode   6: -1.14733D+00 -1.28416D+00 -5.62836D-05
 Vibrational polarizability contributions from mode   6       0.0023676       0.0029660       0.0000000
 Diagonal vibrational polarizability:
        1.9466663       0.1806866      11.7722104
 NorSel:  MapVib=      1      2      3      4      5      6
 Harmonic frequencies (cm**-1), IR intensities (KM/Mole), Raman scattering
 activities (A**4/AMU), depolarization ratios for plane and unpolarized
 incident light, reduced masses (AMU), force constants (mDyne/A),
 and normal coordinates:
                      1                      2                      3
                      A                      A                      A
 Frequencies --    433.5558               516.5393              1040.6428
 Red. masses --      1.2956                 6.7633                10.0878
 Frc consts  --      0.1435                 1.0632                 6.4365
 IR Inten    --     82.2271                 5.4524                 8.0111
  Atom  AN      X      Y      Z        X      Y      Z        X      Y      Z
     1   1     0.00   0.00   0.99    -0.28  -0.68   0.00     0.21   0.43   0.00
     2   7     0.00   0.00  -0.04     0.33  -0.11   0.00    -0.44  -0.28   0.00
     3   6     0.00   0.00  -0.13     0.01   0.47   0.00     0.65   0.25   0.00
     4   8     0.00   0.00   0.07    -0.27  -0.21   0.00    -0.12   0.02   0.00
                      4                      5                      6
                      A                      A                      A
 Frequencies --   1272.4030              1552.8051              3868.1246
 Red. masses --      1.7833                 2.8407                 1.0758
 Frc consts  --      1.7011                 4.0356                 9.4842
 IR Inten    --     20.4691                92.5340                 2.9654
  Atom  AN      X      Y      Z        X      Y      Z        X      Y      Z
     1   1     0.78   0.58   0.00     0.69   0.61   0.00    -0.69   0.72   0.00
     2   7     0.12  -0.03   0.00    -0.07  -0.13   0.00     0.05  -0.05   0.00
     3   6     0.02  -0.09   0.00    -0.21   0.22   0.00     0.00   0.00   0.00
     4   8    -0.17   0.06   0.00     0.17  -0.09   0.00     0.00   0.00   0.00

 -------------------
 - Thermochemistry -
 -------------------
 Temperature   298.150 Kelvin.  Pressure   1.00000 Atm.
 Atom     1 has atomic number  1 and mass   1.00783
 Atom     2 has atomic number  7 and mass  14.00307
 Atom     3 has atomic number  6 and mass  12.00000
 Atom     4 has atomic number  8 and mass  15.99491
 Molecular mass:    43.00581 amu.
 Principal axes and moments of inertia in atomic units:
                           1         2         3
     Eigenvalues --     9.21933 165.99033 175.20966
           X            0.99973  -0.02344   0.00000
           Y            0.02344   0.99973   0.00001
           Z            0.00000  -0.00001   1.00000
 This molecule is an asymmetric top.
 Rotational symmetry number  1.
 Rotational temperatures (Kelvin)      9.39482     0.52180     0.49434
 Rotational constants (GHZ):         195.75620    10.87257    10.30047
 Zero-point vibrational energy      51942.3 (Joules/Mol)
                                   12.41450 (Kcal/Mol)
 Warning -- explicit consideration of   2 degrees of freedom as
           vibrations may cause significant error
 Vibrational temperatures:    623.79   743.18  1497.25  1830.70  2234.14
          (Kelvin)           5565.37
 
 Zero-point correction=                           0.019784 (Hartree/Particle)
 Thermal correction to Energy=                    0.023155
 Thermal correction to Enthalpy=                  0.024099
 Thermal correction to Gibbs Free Energy=        -0.004976
 Sum of electronic and zero-point Energies=           -165.436821
 Sum of electronic and thermal Energies=              -165.433450
 Sum of electronic and thermal Enthalpies=            -165.432506
 Sum of electronic and thermal Free Energies=         -165.461580
 
                     E (Thermal)             CV                S
                      KCal/Mol        Cal/Mol-Kelvin    Cal/Mol-Kelvin
 Total                   14.530              9.131             61.193
 Electronic               0.000              0.000              2.183
 Translational            0.889              2.981             37.203
 Rotational               0.889              2.981             20.222
 Vibrational             12.752              3.170              1.585
 Vibration     1          0.794              1.397              0.847
 Vibration     2          0.872              1.213              0.618
                       Q            Log10(Q)             Ln(Q)
 Total Bot       0.194415D+03          2.288729          5.269993
 Total V=0       0.244694D+12         11.388623         26.223273
 Vib (Bot)       0.997349D-09         -9.001153        -20.725920
 Vib (Bot)    1  0.400765D+00         -0.397110         -0.914380
 Vib (Bot)    2  0.313481D+00         -0.503789         -1.160017
 Vib (V=0)       0.125528D+01          0.098741          0.227360
 Vib (V=0)    1  0.114079D+01          0.057206          0.131722
 Vib (V=0)    2  0.109014D+01          0.037484          0.086310
 Electronic      0.300000D+01          0.477121          1.098612
 Translational   0.110852D+08          7.044745         16.221124
 Rotational      0.586159D+04          3.768016          8.676177
 Write normal modes, IRwNMS=   765 IRotNM=-1 NVibU=     6.
 
                                                                  T1
                                                             IR Spectrum
 
     3                                                                            1        1      1                                  
     8                                                                            5        2      0                 5 4              
     6                                                                            5        7      4                 1 3              
     8                                                                            3        2      1                 7 4              
 
     X                                                                            X        X      X                 X X              
                                                                                  X        X      X                   X              
                                                                                  X        X                          X              
                                                                                  X        X                          X              
                                                                                  X                                   X              
                                                                                  X                                   X              
                                                                                  X                                   X              
                                                                                  X                                   X              
                                                                                  X                                   X              
                                                                                  X                                   X              
                                                                                  X                                   X              
                                                                                  X                                   X              
                                                                                  X                                   X              
                                                                                  X                                   X              
                                                                                  X                                   X              
                                                                                  X                                   X              
                                                                                  X                                   X              
                                                                                  X                                   X              
                                                                                  X                                                  
                                                                                  X                                                  
 
 Forces in standard orientation:
 -------------------------------------------------------------------
 Center     Atomic                   Forces (Hartrees/Bohr)
 Number     Number              X              Y              Z
 -------------------------------------------------------------------
      1        1          -0.001869578   -0.003000991    0.000000806
      2        7           0.029297698    0.038072106   -0.000000940
      3        6           0.006171898   -0.068952744    0.000000153
      4        8          -0.033600018    0.033881628   -0.000000020
 -------------------------------------------------------------------
 Cartesian Forces:  Max     0.068952744 RMS     0.027972964
 ***** Axes restored to original set *****
 Rotating derivatives, DoTrsp=F IDiff=-2 LEDeriv=    628 LFDPrp=       0 LDFDPr=       0.
 -------------------------------------------------------------------
 Center     Atomic                   Forces (Hartrees/Bohr)
 Number     Number              X              Y              Z
 -------------------------------------------------------------------
      1        1           0.003405751   -0.000000871   -0.000949802
      2        7          -0.047320922    0.000001630    0.008280744
      3        6           0.042028421   -0.000002762   -0.055010772
      4        8           0.001886749    0.000002003    0.047679829
 -------------------------------------------------------------------
 Cartesian Forces:  Max     0.055010772 RMS     0.027972964
 From PutF, contents of force:
   1    0.9498018940D-03
   2    0.3960940880D-01
   3    0.4353205726D-01
   4   -0.6763230607D-02
   5   -0.4559083561D-01
   6    0.1653179023D-05
 -----------------------------------------------------------------------------------------------
                       Internal Coordinate Forces (Hartree/Bohr or radian)
  Cent   Atom   N1       Length/X         N2         Alpha/Y        N3         Beta/Z          J
 -----------------------------------------------------------------------------------------------
      1  H 
      2  N        1   0.000950(     1)
      3  C        2   0.039609(     2)      1  -0.006763(     4)
      4  O        3   0.043532(     3)      2  -0.045591(     5)      1   0.000002(     6)     0
 -----------------------------------------------------------------------------------------------
 Internal  Forces:  Max     0.045590836 RMS     0.030520793
 Force constants in Cartesian coordinates: 
                1             2             3             4             5 
      1  0.620926D-01
      2  0.000000D+00  0.591587D-02
      3  0.130771D-01  0.000000D+00  0.532286D+00
      4 -0.406965D-01  0.165127D-05 -0.334144D-01  0.375012D+00
      5  0.106344D-05 -0.120612D-02  0.000000D+00 -0.200958D-05 -0.242938D-01
      6  0.524667D-01 -0.114582D-05 -0.525060D+00  0.980819D-01  0.405337D-05
      7 -0.121205D-01 -0.231960D-05  0.230437D-01 -0.233478D+00  0.395234D-05
      8  0.000000D+00 -0.125530D-01  0.000000D+00  0.104736D-04  0.401647D-01
      9 -0.659425D-01  0.132275D-05 -0.589539D-02  0.151490D+00 -0.526227D-05
     10 -0.927551D-02  0.000000D+00 -0.270633D-02 -0.100838D+00 -0.300620D-05
     11  0.000000D+00  0.784326D-02  0.000000D+00 -0.101152D-04 -0.146648D-01
     12  0.398657D-03  0.000000D+00 -0.133120D-02 -0.216158D+00  0.150531D-05
                6             7             8             9            10 
      6  0.644486D+00
      7 -0.665708D-01  0.280603D+00
      8  0.000000D+00  0.000000D+00 -0.523579D-01
      9 -0.644168D-01  0.614556D-01  0.290234D-04  0.510797D+00
     10 -0.839779D-01 -0.350041D-01 -0.104886D-04 -0.147003D+00  0.145117D+00
     11 -0.215920D-05 -0.255453D-05  0.247463D-01 -0.250838D-04  0.125787D-04
     12 -0.550090D-01 -0.179285D-01 -0.282920D-04 -0.440485D+00  0.233687D+00
               11            12 
     11 -0.179247D-01
     12  0.273414D-04  0.496825D+00
 FCInt: Cartesian first derivatives: 
                 1             2             3             4 
      1   0.340575D-02 -0.473209D-01  0.420284D-01  0.188675D-02
      2   0.000000D+00  0.163009D-05 -0.276219D-05  0.200291D-05
      3  -0.949802D-03  0.828074D-02 -0.550108D-01  0.476798D-01
 FCInt: Cartesian force constants: 
                1             2             3             4             5 
      1  0.620926D-01
      2  0.000000D+00  0.591587D-02
      3  0.130771D-01  0.000000D+00  0.532286D+00
      4 -0.406965D-01  0.165127D-05 -0.334144D-01  0.375012D+00
      5  0.106344D-05 -0.120612D-02  0.000000D+00 -0.200958D-05 -0.242938D-01
      6  0.524667D-01 -0.114582D-05 -0.525060D+00  0.980819D-01  0.405337D-05
      7 -0.121205D-01 -0.231960D-05  0.230437D-01 -0.233478D+00  0.395234D-05
      8  0.000000D+00 -0.125530D-01  0.000000D+00  0.104736D-04  0.401647D-01
      9 -0.659425D-01  0.132275D-05 -0.589539D-02  0.151490D+00 -0.526227D-05
     10 -0.927551D-02  0.000000D+00 -0.270633D-02 -0.100838D+00 -0.300620D-05
     11  0.000000D+00  0.784326D-02  0.000000D+00 -0.101152D-04 -0.146648D-01
     12  0.398657D-03  0.000000D+00 -0.133120D-02 -0.216158D+00  0.150531D-05
                6             7             8             9            10 
      6  0.644486D+00
      7 -0.665708D-01  0.280603D+00
      8  0.000000D+00  0.000000D+00 -0.523579D-01
      9 -0.644168D-01  0.614556D-01  0.290234D-04  0.510797D+00
     10 -0.839779D-01 -0.350041D-01 -0.104886D-04 -0.147003D+00  0.145117D+00
     11 -0.215920D-05 -0.255453D-05  0.247463D-01 -0.250838D-04  0.125787D-04
     12 -0.550090D-01 -0.179285D-01 -0.282920D-04 -0.440485D+00  0.233687D+00
               11            12 
     11 -0.179247D-01
     12  0.273414D-04  0.496825D+00
 Internal force constants: 
                1             2             3             4             5 
      1  0.532286D+00
      2 -0.171787D-01  0.409960D+00
      3  0.239703D-02  0.257825D+00  0.613433D+00
      4  0.293746D-01  0.800392D-01  0.749317D-02  0.246749D+00
      5  0.427039D-02  0.428457D-01  0.213791D-01  0.392994D-01  0.256731D+00
      6  0.000000D+00  0.208959D-05  0.000000D+00  0.000000D+00 -0.310735D-05
                6 
      6  0.248447D-01
 Frcnst in PutFF: 
                1             2             3             4             5 
      1  0.532286D+00
      2 -0.171787D-01  0.409960D+00
      3  0.239703D-02  0.257825D+00  0.613433D+00
      4  0.293746D-01  0.800392D-01  0.749317D-02  0.246749D+00
      5  0.427039D-02  0.428457D-01  0.213791D-01  0.392994D-01  0.256731D+00
      6  0.000000D+00  0.208959D-05  0.000000D+00  0.000000D+00 -0.310735D-05
                6 
      6  0.248447D-01
 Force constants in internal coordinates: 
                1             2             3             4             5 
      1  0.532286D+00
      2 -0.171787D-01  0.409960D+00
      3  0.239703D-02  0.257825D+00  0.613433D+00
      4  0.293746D-01  0.800392D-01  0.749317D-02  0.246749D+00
      5  0.427039D-02  0.428457D-01  0.213791D-01  0.392994D-01  0.256731D+00
      6  0.000000D+00  0.208959D-05  0.000000D+00  0.000000D+00 -0.310735D-05
                6 
      6  0.248447D-01
 Final forces over variables, Energy=-1.65456604D+02:
  9.49801894D-04 3.96094088D-02 4.35320573D-02-6.76323061D-03
 -4.55908356D-02 1.65317902D-06
 Leave Link  716 at Fri Apr 15 18:54:14 2022, MaxMem=   131072000 cpu:               0.0 elap:               0.0
 (Enter C:\G16W\l103.exe)

 GradGradGradGradGradGradGradGradGradGradGradGradGradGradGradGradGradGrad
 Berny optimization.
 Search for a local minimum.
 Step number   1 out of a maximum of    2
 All quantities printed in internal units (Hartrees-Bohrs-Radians)
 Second derivative matrix not updated -- analytic derivatives used.
 The second derivative matrix:
                          B1        B2        B3        A1        A2
           B1           0.53229
           B2          -0.01718   0.40996
           B3           0.00240   0.25783   0.61343
           A1           0.02937   0.08004   0.00749   0.24675
           A2           0.00427   0.04285   0.02138   0.03930   0.25673
           D1           0.00000   0.00000   0.00000   0.00000   0.00000
                          D1
           D1           0.02484
 ITU=  0
     Eigenvalues ---    0.02484   0.17278   0.22975   0.32320   0.53576
     Eigenvalues ---    0.79766
 Angle between quadratic step and forces=  29.10 degrees.
 Linear search not attempted -- first point.
 Variable       Old X    -DE/DX   Delta X   Delta X   Delta X     New X
                                 (Linear)    (Quad)   (Total)
    B1        1.98583   0.00095   0.00000   0.00816   0.00816   1.99399
    B2        2.57499   0.03961   0.00000   0.10082   0.10082   2.67581
    B3        2.33298   0.04353   0.00000   0.03566   0.03566   2.36864
    A1        1.87962  -0.00676   0.00000  -0.03148  -0.03148   1.84815
    A2        2.34112  -0.04559   0.00000  -0.19269  -0.19269   2.14842
    D1        3.14153   0.00000   0.00000   0.00003   0.00003   3.14156
         Item               Value     Threshold  Converged?
 Maximum Force            0.045591     0.000450     NO 
 RMS     Force            0.030521     0.000300     NO 
 Maximum Displacement     0.192695     0.001800     NO 
 RMS     Displacement     0.090943     0.001200     NO 
 Predicted change in Energy=-7.275695D-03
                       ----------------------------
                       ! Non-Optimized Parameters !
                       ! (Angstroms and Degrees)  !
 ----------------------                            ----------------------
 !      Name          Value   Derivative information (Atomic Units)     !
 ------------------------------------------------------------------------
 !       B1          1.0552   -DE/DX =    0.0009                        !
 !       B2          1.416    -DE/DX =    0.0396                        !
 !       B3          1.2534   -DE/DX =    0.0435                        !
 !       A1        105.891    -DE/DX =   -0.0068                        !
 !       A2        123.0957   -DE/DX =   -0.0456                        !
 !       D1        179.9981   -DE/DX =    0.0                           !
 ------------------------------------------------------------------------
 GradGradGradGradGradGradGradGradGradGradGradGradGradGradGradGradGradGrad

 Leave Link  103 at Fri Apr 15 18:54:14 2022, MaxMem=   131072000 cpu:               0.0 elap:               0.0
 (Enter C:\G16W\l9999.exe)

 ----------------------------------------------------------------------

 Electric dipole moment (input orientation):
 (Debye = 10**-18 statcoulomb cm , SI units = C m)
                  (au)            (Debye)         (10**-30 SI)
   Tot        0.648934D+00      0.164943D+01      0.550189D+01
   x          0.454280D-02      0.115467D-01      0.385155D-01
   y          0.000000D+00      0.000000D+00      0.000000D+00
   z         -0.648918D+00     -0.164939D+01     -0.550176D+01

 Dipole polarizability, Alpha (input orientation).
 (esu units = cm**3 , SI units = C**2 m**2 J**-1)
 Alpha(0;0):
               (au)            (10**-24 esu)      (10**-40 SI)
   iso        0.103605D+02      0.153527D+01      0.170822D+01
   aniso      0.127182D+02      0.188465D+01      0.209695D+01
   xx         0.106054D+02      0.157156D+01      0.174859D+01
   yx         0.118256D-03      0.175238D-04      0.194978D-04
   yy         0.679882D+01      0.100748D+01      0.112097D+01
   zx         0.648414D+01      0.960850D+00      0.106909D+01
   zy         0.314865D-03      0.466582D-04      0.519142D-04
   zz         0.136774D+02      0.202678D+01      0.225510D+01

 First dipole hyperpolarizability, Beta (input orientation).
 ||, _|_  parallel and perpendicular components, (z) with respect to z axis,
 vector components x,y,z.  Values do not include the 1/n! factor of 1/2.
 (esu units = statvolt**-1 cm**4 , SI units = C**3 m**3 J**-2)
 Beta(0;0,0):
               (au)            (10**-30 esu)      (10**-50 SI)
   || (z)    -0.226986D+02     -0.196098D+00     -0.727798D-01
   _|_(z)    -0.756619D+01     -0.653660D-01     -0.242599D-01
   x          0.163382D+03      0.141149D+01      0.523862D+00
   y          0.103830D-03      0.897011D-06      0.332917D-06
   z         -0.113493D+03     -0.980490D+00     -0.363899D+00
   ||         0.397866D+02      0.343725D+00      0.127570D+00
   xxx        0.287937D+02      0.248755D+00      0.923230D-01
   xxy       -0.744969D-04     -0.643595D-06     -0.238864D-06
   yxy        0.228425D+02      0.197341D+00      0.732412D-01
   yyy        0.720075D-03      0.622089D-05      0.230882D-05
   xxz        0.274267D+01      0.236946D-01      0.879400D-02
   yxz        0.157264D-02      0.135864D-04      0.504245D-05
   yyz       -0.196659D+02     -0.169898D+00     -0.630559D-01
   zxz        0.282459D+01      0.244022D-01      0.905665D-02
   zyz       -0.610968D-03     -0.527829D-05     -0.195898D-05
   zzz       -0.209077D+02     -0.180627D+00     -0.670378D-01

 ----------------------------------------------------------------------

 Dipole orientation:
     1          0.00000000          0.00000000          0.00000000
     7          0.01390160          0.00000131         -1.98577760
     6          2.47249155          0.00000182         -2.75123067
     8          3.52593753         -0.00010844         -4.83282616

 Electric dipole moment (dipole orientation):
 (Debye = 10**-18 statcoulomb cm , SI units = C m)
                  (au)            (Debye)         (10**-30 SI)
   Tot        0.648934D+00      0.164943D+01      0.550189D+01
   x          0.000000D+00      0.000000D+00      0.000000D+00
   y          0.000000D+00      0.000000D+00      0.000000D+00
   z          0.648934D+00      0.164943D+01      0.550189D+01

 Dipole polarizability, Alpha (dipole orientation).
 (esu units = cm**3 , SI units = C**2 m**2 J**-1)
 Alpha(0;0):
               (au)            (10**-24 esu)      (10**-40 SI)
   iso        0.103605D+02      0.153527D+01      0.170822D+01
   aniso      0.127182D+02      0.188465D+01      0.209695D+01
   xx         0.106963D+02      0.158503D+01      0.176359D+01
   yx        -0.116164D-03     -0.172138D-04     -0.191529D-04
   yy         0.679882D+01      0.100748D+01      0.112097D+01
   zx        -0.650501D+01     -0.963943D+00     -0.107253D+01
   zy         0.309544D-03      0.458697D-04      0.510370D-04
   zz         0.135865D+02      0.201331D+01      0.224011D+01

 First dipole hyperpolarizability, Beta (dipole orientation).
 ||, _|_  parallel and perpendicular components, (z) with respect to z axis,
 vector components x,y,z.  Values do not include the 1/n! factor of 1/2.
 (esu units = statvolt**-1 cm**4 , SI units = C**3 m**3 J**-2)
 Beta(0;0,0):
               (au)            (10**-30 esu)      (10**-50 SI)
   || (z)     0.229268D+02      0.198069D+00      0.735115D-01
   _|_(z)     0.764225D+01      0.660231D-01      0.245038D-01
   x          0.162584D+03      0.140460D+01      0.521302D+00
   y         -0.178949D-03     -0.154598D-05     -0.573775D-06
   z          0.114634D+03      0.990347D+00      0.367557D+00
   ||         0.397866D+02      0.343725D+00      0.127570D+00
   xxx        0.288496D+02      0.249238D+00      0.925022D-01
   xxy        0.541659D-04      0.467951D-06      0.173675D-06
   yxy        0.227042D+02      0.196147D+00      0.727979D-01
   yyy       -0.759086D-03     -0.655792D-05     -0.243391D-05
   xxz       -0.257916D+01     -0.222820D-01     -0.826973D-02
   yxz        0.158189D-02      0.136663D-04      0.507211D-05
   yyz        0.198253D+02      0.171275D+00      0.635671D-01
   zxz        0.264076D+01      0.228141D-01      0.846723D-02
   zyz        0.645271D-03      0.557464D-05      0.206897D-05
   zzz        0.209651D+02      0.181122D+00      0.672218D-01

 ----------------------------------------------------------------------

 Test job not archived.
 1|1|UNPC-DESKTOP-RNC6JTU|Freq|UHF|STO-3G|C1H1N1O1(3)|BNULK|15-Apr-2022
 |1||#p sto-3g scf=maxcycle=999 freq=noraman IOP(7/33=1) hf||T1||0,3|H|
 N,1,B1|C,2,B2,1,A1|O,3,B3,2,A2,1,D1,0||B1=1.050854|B2=1.362627|B3=1.23
 4559|A1=107.69446|A2=134.13625|D1=179.99618||Version=EM64W-G16RevA.03|
 State=3-A|HF=-165.4566044|S2=2.256822|S2-1=0.|S2A=2.005278|RMSD=4.924e
 -009|RMSF=2.797e-002|ZeroPoint=0.0197838|Thermal=0.0231545|Dipole=0.00
 45428,-0.0000004,-0.6489182|DipoleDeriv=0.2598305,0.000001,0.1293867,-
 0.0000043,0.3237193,0.0000055,0.0579567,0.0000014,-0.0042683,-0.037695
 ,0.0000052,-0.0395522,0.0000093,-0.327383,-0.0000087,0.0733097,0.00000
 46,0.0430891,-0.2595927,-0.0000142,-0.2878859,-0.0000213,0.0079416,-0.
 0000107,-0.4771792,-0.00003,-0.2180981,0.0374572,0.000008,0.1980513,0.
 0000163,-0.0042779,0.0000139,0.3459127,0.0000239,0.1792773|Polar=10.60
 54023,0.0001183,6.7988238,6.4841383,0.0003149,13.6773977|HyperPolar=28
 .7936952,-0.0000745,22.8424513,0.0007201,2.7426739,0.0015726,-19.66587
 88,2.8245864,-0.000611,-20.9077411|Quadrupole=-1.918298,0.7131708,1.20
 51272,-0.0000211,0.3790707,-0.0000574|PG=C01 [X(C1H1N1O1)]|NImag=0||0.
 06209256,-0.00000025,0.00591587,0.01307710,0.00000038,0.53228637,-0.04
 069654,0.00000165,-0.03341444,0.37501233,0.00000106,-0.00120612,-0.000
 00030,-0.00000201,-0.02429377,0.05246675,-0.00000115,-0.52505978,0.098
 08189,0.00000405,0.64448563,-0.01212051,-0.00000232,0.02304367,-0.2334
 7824,0.00000395,-0.06657077,0.28060288,-0.00000091,-0.01255301,0.00000
 002,0.00001047,0.04016468,-0.00000075,0.00000092,-0.05235793,-0.065942
 50,0.00000132,-0.00589539,0.15149011,-0.00000526,-0.06441683,0.0614556
 2,0.00002902,0.51079746,-0.00927551,0.00000092,-0.00270633,-0.10083754
 ,-0.00000301,-0.08397787,-0.03500413,-0.00001049,-0.14700324,0.1451171
 9,0.00000009,0.00784326,-0.00000010,-0.00001012,-0.01466479,-0.0000021
 6,-0.00000255,0.02474627,-0.00002508,0.00001258,-0.01792474,0.00039866
 ,-0.00000055,-0.00133120,-0.21615756,0.00000151,-0.05500903,-0.0179285
 3,-0.00002829,-0.44048525,0.23368743,0.00002734,0.49682547||-0.0034057
 5,0.00000087,0.00094980,0.04732092,-0.00000163,-0.00828074,-0.04202842
 ,0.00000276,0.05501077,-0.00188675,-0.00000200,-0.04767983|||@


 I WANT TO KNOW HOW GOD CREATED THE WORLD.  I AM NOT INTERESTED IN
 THIS OR THAT PHENOMENON, IN THE SPECTRUM OF THIS OR THAT ELEMENT.
 I WANT TO KNOW HIS THOUGHTS, THE REST ARE DETAILS.
     -- ALBERT EINSTEIN
 Job cpu time:       0 days  0 hours  0 minutes  2.0 seconds.
 Elapsed time:       0 days  0 hours  0 minutes  1.1 seconds.
 File lengths (MBytes):  RWF=      6 Int=      0 D2E=      0 Chk=      1 Scr=      1
 Normal termination of Gaussian 16 at Fri Apr 15 18:54:14 2022.
